 Entering Gaussian System, Link 0=g16
 Input=/home/leos/jsmolpage/PDB/Ciclo/C1.4.com
 Output=/home/leos/jsmolpage/PDB/Ciclo/C1.4.log
 Initial command:
 /opt/g16/l1.exe "/tmp/Gau-8396.inp" -scrdir="/tmp/"
 Entering Link 1 = /opt/g16/l1.exe PID=      8399.
  
 Copyright (c) 1988-2017, Gaussian, Inc.  All Rights Reserved.
  
 This is part of the Gaussian(R) 16 program.  It is based on
 the Gaussian(R) 09 system (copyright 2009, Gaussian, Inc.),
 the Gaussian(R) 03 system (copyright 2003, Gaussian, Inc.),
 the Gaussian(R) 98 system (copyright 1998, Gaussian, Inc.),
 the Gaussian(R) 94 system (copyright 1995, Gaussian, Inc.),
 the Gaussian 92(TM) system (copyright 1992, Gaussian, Inc.),
 the Gaussian 90(TM) system (copyright 1990, Gaussian, Inc.),
 the Gaussian 88(TM) system (copyright 1988, Gaussian, Inc.),
 the Gaussian 86(TM) system (copyright 1986, Carnegie Mellon
 University), and the Gaussian 82(TM) system (copyright 1983,
 Carnegie Mellon University). Gaussian is a federally registered
 trademark of Gaussian, Inc.
  
 This software contains proprietary and confidential information,
 including trade secrets, belonging to Gaussian, Inc.
  
 This software is provided under written license and may be
 used, copied, transmitted, or stored only in accord with that
 written license.
  
 The following legend is applicable only to US Government
 contracts under FAR:
  
                    RESTRICTED RIGHTS LEGEND
  
 Use, reproduction and disclosure by the US Government is
 subject to restrictions as set forth in subparagraphs (a)
 and (c) of the Commercial Computer Software - Restricted
 Rights clause in FAR 52.227-19.
  
 Gaussian, Inc.
 340 Quinnipiac St., Bldg. 40, Wallingford CT 06492
  
  
 ---------------------------------------------------------------
 Warning -- This program may not be used in any manner that
 competes with the business of Gaussian, Inc. or will provide
 assistance to any competitor of Gaussian, Inc.  The licensee
 of this program is prohibited from giving any competitor of
 Gaussian, Inc. access to this program.  By using this program,
 the user acknowledges that Gaussian, Inc. is engaged in the
 business of creating and licensing software in the field of
 computational chemistry and represents and warrants to the
 licensee that it is not a competitor of Gaussian, Inc. and that
 it will not use this program in any manner prohibited above.
 ---------------------------------------------------------------
  

 Cite this work as:
 Gaussian 16, Revision B.01,
 M. J. Frisch, G. W. Trucks, H. B. Schlegel, G. E. Scuseria, 
 M. A. Robb, J. R. Cheeseman, G. Scalmani, V. Barone, 
 G. A. Petersson, H. Nakatsuji, X. Li, M. Caricato, A. V. Marenich, 
 J. Bloino, B. G. Janesko, R. Gomperts, B. Mennucci, H. P. Hratchian, 
 J. V. Ortiz, A. F. Izmaylov, J. L. Sonnenberg, D. Williams-Young, 
 F. Ding, F. Lipparini, F. Egidi, J. Goings, B. Peng, A. Petrone, 
 T. Henderson, D. Ranasinghe, V. G. Zakrzewski, J. Gao, N. Rega, 
 G. Zheng, W. Liang, M. Hada, M. Ehara, K. Toyota, R. Fukuda, 
 J. Hasegawa, M. Ishida, T. Nakajima, Y. Honda, O. Kitao, H. Nakai, 
 T. Vreven, K. Throssell, J. A. Montgomery, Jr., J. E. Peralta, 
 F. Ogliaro, M. J. Bearpark, J. J. Heyd, E. N. Brothers, K. N. Kudin, 
 V. N. Staroverov, T. A. Keith, R. Kobayashi, J. Normand, 
 K. Raghavachari, A. P. Rendell, J. C. Burant, S. S. Iyengar, 
 J. Tomasi, M. Cossi, J. M. Millam, M. Klene, C. Adamo, R. Cammi, 
 J. W. Ochterski, R. L. Martin, K. Morokuma, O. Farkas, 
 J. B. Foresman, and D. J. Fox, Gaussian, Inc., Wallingford CT, 2016.
 
 ******************************************
 Gaussian 16:  ES64L-G16RevB.01 20-Dec-2017
                20-Oct-2019 
 ******************************************
 %nprocshared=2
 Will use up to    2 processors via shared memory.
 %mem=6GB
 %chk=C3.chk
 ------------------------------------------------
 # opt=modredundant b3lyp/3-21g geom=connectivity
 ------------------------------------------------
 1/18=120,19=15,26=3,38=1,57=2/1,3;
 2/9=110,12=2,17=6,18=5,40=1/2;
 3/5=5,11=2,25=1,30=1,71=1,74=-5/1,2,3;
 4//1;
 5/5=2,38=5/2;
 6/7=2,8=2,9=2,10=2,28=1/1;
 7//1,2,3,16;
 1/18=20,19=15,26=3/3(2);
 2/9=110/2;
 99//99;
 2/9=110/2;
 3/5=5,11=2,25=1,30=1,71=1,74=-5/1,2,3;
 4/5=5,16=3,69=1/1;
 5/5=2,38=5/2;
 7//1,2,3,16;
 1/18=20,19=15,26=3/3(-5);
 2/9=110/2;
 6/7=2,8=2,9=2,10=2,19=2,28=1/1;
 99/9=1/99;
 -------------------
 Title Card Required
 -------------------
 Symbolic Z-matrix:
 Charge =  0 Multiplicity = 1
 C                    -0.32533  -1.15733   0.36566 
 C                    -1.20765  -0.68248  -0.71237 
 C                    -1.20798   0.6836   -0.71082 
 C                    -0.3258    1.15636   0.36828 
 H                    -0.33726  -2.19176   0.6891 
 H                    -1.66137  -1.32767  -1.45298 
 H                    -1.66194   1.33026  -1.45001 
 H                    -0.33807   2.18998   0.69428 
 C                    -0.31758  -0.00165   1.37616 
 H                    -1.23498  -0.00243   1.97647 
 H                     0.55757  -0.00218   2.03378 
 C                     0.93943  -0.86233  -0.15719 
 H                     1.46538  -1.23269  -1.3486 
 H                     2.14182  -1.21287   0.33123 
 C                     0.93857   0.86311  -0.15649 
 H                     2.14253   1.21624   0.32941 
 H                     1.46093   1.23301  -1.34825 
 
 Add virtual bond connecting atoms C12        and C1         Dist= 2.65D+00.
 Add virtual bond connecting atoms C15        and C4         Dist= 2.65D+00.
 The following ModRedundant input section has been read:
 B       4      15 F                                                           
 B       1      12 F                                                           
 

 GradGradGradGradGradGradGradGradGradGradGradGradGradGradGradGradGradGrad
 Berny optimization.
 Initialization pass.
                           ----------------------------
                           !    Initial Parameters    !
                           ! (Angstroms and Degrees)  !
 --------------------------                            --------------------------
 ! Name  Definition              Value          Derivative Info.                !
 --------------------------------------------------------------------------------
 ! R1    R(1,2)                  1.4718         estimate D2E/DX2                !
 ! R2    R(1,5)                  1.0839         estimate D2E/DX2                !
 ! R3    R(1,9)                  1.5352         estimate D2E/DX2                !
 ! R4    R(1,12)                 1.4            Frozen                          !
 ! R5    R(2,3)                  1.3661         estimate D2E/DX2                !
 ! R6    R(2,6)                  1.082          estimate D2E/DX2                !
 ! R7    R(3,4)                  1.4718         estimate D2E/DX2                !
 ! R8    R(3,7)                  1.082          estimate D2E/DX2                !
 ! R9    R(4,8)                  1.0839         estimate D2E/DX2                !
 ! R10   R(4,9)                  1.5352         estimate D2E/DX2                !
 ! R11   R(4,15)                 1.4            Frozen                          !
 ! R12   R(9,10)                 1.0963         estimate D2E/DX2                !
 ! R13   R(9,11)                 1.0947         estimate D2E/DX2                !
 ! R14   R(12,13)                1.354          estimate D2E/DX2                !
 ! R15   R(12,14)                1.3443         estimate D2E/DX2                !
 ! R16   R(12,15)                1.7254         estimate D2E/DX2                !
 ! R17   R(15,16)                1.3455         estimate D2E/DX2                !
 ! R18   R(15,17)                1.3528         estimate D2E/DX2                !
 ! A1    A(2,1,5)              121.3246         estimate D2E/DX2                !
 ! A2    A(2,1,9)              104.0207         estimate D2E/DX2                !
 ! A3    A(2,1,12)             101.5397         estimate D2E/DX2                !
 ! A4    A(5,1,9)              121.4728         estimate D2E/DX2                !
 ! A5    A(5,1,12)             108.8138         estimate D2E/DX2                !
 ! A6    A(9,1,12)              94.7405         estimate D2E/DX2                !
 ! A7    A(1,2,3)              108.781          estimate D2E/DX2                !
 ! A8    A(1,2,6)              124.0824         estimate D2E/DX2                !
 ! A9    A(3,2,6)              126.6547         estimate D2E/DX2                !
 ! A10   A(2,3,4)              108.7778         estimate D2E/DX2                !
 ! A11   A(2,3,7)              126.6555         estimate D2E/DX2                !
 ! A12   A(4,3,7)              124.0837         estimate D2E/DX2                !
 ! A13   A(3,4,8)              121.3356         estimate D2E/DX2                !
 ! A14   A(3,4,9)              104.0198         estimate D2E/DX2                !
 ! A15   A(3,4,15)             101.4908         estimate D2E/DX2                !
 ! A16   A(8,4,9)              121.4615         estimate D2E/DX2                !
 ! A17   A(8,4,15)             108.8274         estimate D2E/DX2                !
 ! A18   A(9,4,15)              94.7756         estimate D2E/DX2                !
 ! A19   A(1,9,4)               97.7978         estimate D2E/DX2                !
 ! A20   A(1,9,10)             110.8335         estimate D2E/DX2                !
 ! A21   A(1,9,11)             113.5212         estimate D2E/DX2                !
 ! A22   A(4,9,10)             110.8259         estimate D2E/DX2                !
 ! A23   A(4,9,11)             113.5179         estimate D2E/DX2                !
 ! A24   A(10,9,11)            109.8784         estimate D2E/DX2                !
 ! A25   A(1,12,13)            128.4559         estimate D2E/DX2                !
 ! A26   A(1,12,14)            128.1257         estimate D2E/DX2                !
 ! A27   A(1,12,15)            102.1289         estimate D2E/DX2                !
 ! A28   A(13,12,14)            84.3149         estimate D2E/DX2                !
 ! A29   A(13,12,15)           105.9073         estimate D2E/DX2                !
 ! A30   A(14,12,15)           105.1325         estimate D2E/DX2                !
 ! A31   A(4,15,12)            102.1263         estimate D2E/DX2                !
 ! A32   A(4,15,16)            128.1542         estimate D2E/DX2                !
 ! A33   A(4,15,17)            128.4391         estimate D2E/DX2                !
 ! A34   A(12,15,16)           105.1981         estimate D2E/DX2                !
 ! A35   A(12,15,17)           105.8365         estimate D2E/DX2                !
 ! A36   A(16,15,17)            84.3103         estimate D2E/DX2                !
 ! D1    D(5,1,2,3)            166.5759         estimate D2E/DX2                !
 ! D2    D(5,1,2,6)            -20.9339         estimate D2E/DX2                !
 ! D3    D(9,1,2,3)             25.1388         estimate D2E/DX2                !
 ! D4    D(9,1,2,6)           -162.371          estimate D2E/DX2                !
 ! D5    D(12,1,2,3)           -72.7888         estimate D2E/DX2                !
 ! D6    D(12,1,2,6)            99.7014         estimate D2E/DX2                !
 ! D7    D(2,1,9,4)            -37.7231         estimate D2E/DX2                !
 ! D8    D(2,1,9,10)            78.1298         estimate D2E/DX2                !
 ! D9    D(2,1,9,11)          -157.6478         estimate D2E/DX2                !
 ! D10   D(5,1,9,4)           -179.0879         estimate D2E/DX2                !
 ! D11   D(5,1,9,10)           -63.235          estimate D2E/DX2                !
 ! D12   D(5,1,9,11)            60.9874         estimate D2E/DX2                !
 ! D13   D(12,1,9,4)            65.433          estimate D2E/DX2                !
 ! D14   D(12,1,9,10)         -178.7141         estimate D2E/DX2                !
 ! D15   D(12,1,9,11)          -54.4917         estimate D2E/DX2                !
 ! D16   D(2,1,12,13)          -54.2922         estimate D2E/DX2                !
 ! D17   D(2,1,12,14)         -171.8398         estimate D2E/DX2                !
 ! D18   D(2,1,12,15)           67.6234         estimate D2E/DX2                !
 ! D19   D(5,1,12,13)           74.7669         estimate D2E/DX2                !
 ! D20   D(5,1,12,14)          -42.7807         estimate D2E/DX2                !
 ! D21   D(5,1,12,15)         -163.3175         estimate D2E/DX2                !
 ! D22   D(9,1,12,13)         -159.6623         estimate D2E/DX2                !
 ! D23   D(9,1,12,14)           82.7902         estimate D2E/DX2                !
 ! D24   D(9,1,12,15)          -37.7467         estimate D2E/DX2                !
 ! D25   D(1,2,3,4)              0.0029         estimate D2E/DX2                !
 ! D26   D(1,2,3,7)            172.2397         estimate D2E/DX2                !
 ! D27   D(6,2,3,4)           -172.2426         estimate D2E/DX2                !
 ! D28   D(6,2,3,7)             -0.0057         estimate D2E/DX2                !
 ! D29   D(2,3,4,8)           -166.5729         estimate D2E/DX2                !
 ! D30   D(2,3,4,9)            -25.1429         estimate D2E/DX2                !
 ! D31   D(2,3,4,15)            72.8079         estimate D2E/DX2                !
 ! D32   D(7,3,4,8)             20.9453         estimate D2E/DX2                !
 ! D33   D(7,3,4,9)            162.3753         estimate D2E/DX2                !
 ! D34   D(7,3,4,15)           -99.6738         estimate D2E/DX2                !
 ! D35   D(3,4,9,1)             37.7247         estimate D2E/DX2                !
 ! D36   D(3,4,9,10)           -78.1343         estimate D2E/DX2                !
 ! D37   D(3,4,9,11)           157.6518         estimate D2E/DX2                !
 ! D38   D(8,4,9,1)            179.0933         estimate D2E/DX2                !
 ! D39   D(8,4,9,10)            63.2343         estimate D2E/DX2                !
 ! D40   D(8,4,9,11)           -60.9796         estimate D2E/DX2                !
 ! D41   D(15,4,9,1)           -65.3901         estimate D2E/DX2                !
 ! D42   D(15,4,9,10)          178.7509         estimate D2E/DX2                !
 ! D43   D(15,4,9,11)           54.537          estimate D2E/DX2                !
 ! D44   D(3,4,15,12)          -67.7319         estimate D2E/DX2                !
 ! D45   D(3,4,15,16)          171.618          estimate D2E/DX2                !
 ! D46   D(3,4,15,17)           54.0636         estimate D2E/DX2                !
 ! D47   D(8,4,15,12)          163.2181         estimate D2E/DX2                !
 ! D48   D(8,4,15,16)           42.568          estimate D2E/DX2                !
 ! D49   D(8,4,15,17)          -74.9864         estimate D2E/DX2                !
 ! D50   D(9,4,15,12)           37.6383         estimate D2E/DX2                !
 ! D51   D(9,4,15,16)          -83.0117         estimate D2E/DX2                !
 ! D52   D(9,4,15,17)          159.4338         estimate D2E/DX2                !
 ! D53   D(1,12,15,4)            0.076          estimate D2E/DX2                !
 ! D54   D(1,12,15,16)         135.5677         estimate D2E/DX2                !
 ! D55   D(1,12,15,17)        -136.1359         estimate D2E/DX2                !
 ! D56   D(13,12,15,4)         136.353          estimate D2E/DX2                !
 ! D57   D(13,12,15,16)        -88.1554         estimate D2E/DX2                !
 ! D58   D(13,12,15,17)          0.141          estimate D2E/DX2                !
 ! D59   D(14,12,15,4)        -135.3452         estimate D2E/DX2                !
 ! D60   D(14,12,15,16)          0.1464         estimate D2E/DX2                !
 ! D61   D(14,12,15,17)         88.4428         estimate D2E/DX2                !
 --------------------------------------------------------------------------------
 Trust Radius=3.00D-01 FncErr=1.00D-07 GrdErr=1.00D-06 EigMax=2.50D+02 EigMin=1.00D-04
 Number of steps in this run=    102 maximum allowed number of steps=    102.
 GradGradGradGradGradGradGradGradGradGradGradGradGradGradGradGradGradGrad

                          Input orientation:                          
 ---------------------------------------------------------------------
 Center     Atomic      Atomic             Coordinates (Angstroms)
 Number     Number       Type             X           Y           Z
 ---------------------------------------------------------------------
      1          6           0       -0.325325   -1.157333    0.365664
      2          6           0       -1.207654   -0.682481   -0.712367
      3          6           0       -1.207984    0.683595   -0.710819
      4          6           0       -0.325795    1.156361    0.368284
      5          1           0       -0.337263   -2.191759    0.689097
      6          1           0       -1.661374   -1.327673   -1.452977
      7          1           0       -1.661939    1.330258   -1.450006
      8          1           0       -0.338067    2.189975    0.694278
      9          6           0       -0.317579   -0.001646    1.376164
     10          1           0       -1.234975   -0.002426    1.976468
     11          1           0        0.557570   -0.002180    2.033785
     12          6           0        0.939428   -0.862335   -0.157190
     13          1           0        1.465375   -1.232690   -1.348600
     14          1           0        2.141818   -1.212868    0.331230
     15          6           0        0.938568    0.863109   -0.156491
     16          1           0        2.142530    1.216240    0.329413
     17          1           0        1.460933    1.233013   -1.348252
 ---------------------------------------------------------------------
                    Distance matrix (angstroms):
                    1          2          3          4          5
     1  C    0.000000
     2  C    1.471781   0.000000
     3  C    2.308012   1.366077   0.000000
     4  C    2.313696   2.307991   1.471811   0.000000
     5  H    1.083877   2.235979   3.314450   3.363474   0.000000
     6  H    2.263073   1.081960   2.191246   3.357259   2.662404
     7  H    3.357276   2.191256   1.081964   2.263117   4.328410
     8  H    3.363424   3.314489   2.236120   1.083873   4.381737
     9  C    1.535182   2.370175   2.370206   1.535210   2.295440
    10  H    2.180817   2.773636   2.773601   2.180746   2.693769
    11  H    2.212806   3.334693   3.334714   2.212791   2.720876
    12  C    1.400000   2.224979   2.703291   2.439681   2.028179
    13  H    2.480118   2.802250   3.350487   3.444350   2.884706
    14  H    2.468008   3.548150   3.987933   3.421072   2.689264
    15  C    2.439725   2.702613   2.224228   1.400000   3.416868
    16  H    3.424248   3.989258   3.548484   2.469357   4.230036
    17  H    3.441218   3.345867   2.798446   2.478864   4.371883
                    6          7          8          9         10
     6  H    0.000000
     7  H    2.657933   0.000000
     8  H    4.328475   2.662650   0.000000
     9  C    3.401201   3.401251   2.295341   0.000000
    10  H    3.701242   3.701225   2.693525   1.096349   0.000000
    11  H    4.340294   4.340324   2.720660   1.094692   1.793461
    12  C    2.942750   3.639498   3.416663   2.161487   3.165433
    13  H    3.129932   4.044636   4.374973   3.481197   4.456626
    14  H    4.202481   4.910077   4.226225   2.933868   3.946481
    15  C    3.638695   2.941776   2.028344   2.162115   3.165905
    16  H    4.911018   4.201585   2.689730   2.937868   3.950377
    17  H    4.039416   3.126042   2.885153   3.479933   4.455109
                   11         12         13         14         15
    11  H    0.000000
    12  C    2.384544   0.000000
    13  H    3.711980   1.353973   0.000000
    14  H    2.621889   1.344310   1.811021   0.000000
    15  C    2.385623   1.725444   2.468000   2.448543   0.000000
    16  H    2.627076   2.450451   3.044918   2.429109   1.345484
    17  H    3.712134   2.465984   2.465707   3.044109   1.352770
                   16         17
    16  H    0.000000
    17  H    1.810916   0.000000
 Stoichiometry    C7H10
 Framework group  C1[X(C7H10)]
 Deg. of freedom    45
 Full point group                 C1      NOp   1
 Largest Abelian subgroup         C1      NOp   1
 Largest concise Abelian subgroup C1      NOp   1
                         Standard orientation:                         
 ---------------------------------------------------------------------
 Center     Atomic      Atomic             Coordinates (Angstroms)
 Number     Number       Type             X           Y           Z
 ---------------------------------------------------------------------
      1          6           0       -0.085195   -1.157270    0.362350
      2          6           0       -1.268858   -0.686407   -0.374785
      3          6           0       -1.272727    0.679665   -0.374097
      4          6           0       -0.091664    1.156416    0.363485
      5          1           0        0.010633   -2.191216    0.673095
      6          1           0       -1.934819   -1.333937   -0.929617
      7          1           0       -1.942287    1.323985   -0.928342
      8          1           0       -0.001467    2.190504    0.675424
      9          6           0        0.243825    0.000016    1.315879
     10          1           0       -0.431645   -0.002211    2.179428
     11          1           0        1.284020    0.002790    1.656962
     12          6           0        0.943206   -0.859802   -0.539816
     13          1           0        1.058963   -1.230655   -1.836855
     14          1           0        2.239842   -1.206439   -0.463999
     15          6           0        0.937495    0.865633   -0.539995
     16          1           0        2.232721    1.222656   -0.467520
     17          1           0        1.047550    1.235026   -1.836692
 ---------------------------------------------------------------------
 Rotational constants (GHZ):           3.8247109           3.7652931           3.1007340
 Standard basis: 3-21G (6D, 7F)
 There are    83 symmetry adapted cartesian basis functions of A   symmetry.
 There are    83 symmetry adapted basis functions of A   symmetry.
    83 basis functions,   135 primitive gaussians,    83 cartesian basis functions
    26 alpha electrons       26 beta electrons
       nuclear repulsion energy       310.5147762085 Hartrees.
 NAtoms=   17 NActive=   17 NUniq=   17 SFac= 1.00D+00 NAtFMM=   60 NAOKFM=F Big=F
 Integral buffers will be    131072 words long.
 Raffenetti 2 integral format.
 Two-electron integral symmetry is turned on.
 One-electron integrals computed using PRISM.
 NBasis=    83 RedAO= T EigKep=  3.87D-03  NBF=    83
 NBsUse=    83 1.00D-06 EigRej= -1.00D+00 NBFU=    83
 ExpMin= 1.83D-01 ExpMax= 1.72D+02 ExpMxC= 1.72D+02 IAcc=3 IRadAn=         5 AccDes= 0.00D+00
 Harris functional with IExCor=  402 and IRadAn=       5 diagonalized for initial guess.
 HarFok:  IExCor=  402 AccDes= 0.00D+00 IRadAn=         5 IDoV= 1 UseB2=F ITyADJ=14
 ICtDFT=  3500011 ScaDFX=  1.000000  1.000000  1.000000  1.000000
 FoFCou: FMM=F IPFlag=           0 FMFlag=      100000 FMFlg1=           0
         NFxFlg=           0 DoJE=T BraDBF=F KetDBF=T FulRan=T
         wScrn=  0.000000 ICntrl=       500 IOpCl=  0 I1Cent=   200000004 NGrid=           0
         NMat0=    1 NMatS0=      1 NMatT0=    0 NMatD0=    1 NMtDS0=    0 NMtDT0=    0
 Petite list used in FoFCou.
 Keep R1 ints in memory in canonical form, NReq=7891700.
 Requested convergence on RMS density matrix=1.00D-08 within 128 cycles.
 Requested convergence on MAX density matrix=1.00D-06.
 Requested convergence on             energy=1.00D-06.
 No special actions if energy rises.
 Integral accuracy reduced to 1.0D-05 until final iterations.
 Initial convergence to 1.0D-05 achieved.  Increase integral accuracy.
 SCF Done:  E(RB3LYP) =  -271.058502726     A.U. after   13 cycles
            NFock= 13  Conv=0.93D-08     -V/T= 2.0084

 **********************************************************************

            Population analysis using the SCF Density.

 **********************************************************************

 Orbital symmetries:
       Occupied  (A) (A) (A) (A) (A) (A) (A) (A) (A) (A) (A) (A)
                 (A) (A) (A) (A) (A) (A) (A) (A) (A) (A) (A) (A)
                 (A) (A)
       Virtual   (A) (A) (A) (A) (A) (A) (A) (A) (A) (A) (A) (A)
                 (A) (A) (A) (A) (A) (A) (A) (A) (A) (A) (A) (A)
                 (A) (A) (A) (A) (A) (A) (A) (A) (A) (A) (A) (A)
                 (A) (A) (A) (A) (A) (A) (A) (A) (A) (A) (A) (A)
                 (A) (A) (A) (A) (A) (A) (A) (A) (A)
 The electronic state is 1-A.
 Alpha  occ. eigenvalues --  -10.15226 -10.15198 -10.12785 -10.12692 -10.12485
 Alpha  occ. eigenvalues --  -10.12447 -10.12321  -0.92662  -0.77100  -0.73768
 Alpha  occ. eigenvalues --   -0.67137  -0.56917  -0.56600  -0.53414  -0.49942
 Alpha  occ. eigenvalues --   -0.47293  -0.41341  -0.41190  -0.39828  -0.37286
 Alpha  occ. eigenvalues --   -0.36059  -0.35397  -0.29804  -0.28475  -0.24328
 Alpha  occ. eigenvalues --   -0.23144
 Alpha virt. eigenvalues --    0.01388   0.07109   0.07747   0.12592   0.13572
 Alpha virt. eigenvalues --    0.14524   0.15695   0.17316   0.17927   0.19375
 Alpha virt. eigenvalues --    0.20152   0.20706   0.22018   0.25144   0.28580
 Alpha virt. eigenvalues --    0.29300   0.35671   0.39735   0.41777   0.68512
 Alpha virt. eigenvalues --    0.69332   0.72777   0.73109   0.74944   0.75653
 Alpha virt. eigenvalues --    0.77109   0.79043   0.81437   0.83271   0.85208
 Alpha virt. eigenvalues --    0.86112   0.87334   0.91839   0.92779   0.94045
 Alpha virt. eigenvalues --    0.94990   0.97365   1.00171   1.00249   1.03796
 Alpha virt. eigenvalues --    1.05833   1.06442   1.10548   1.14297   1.19516
 Alpha virt. eigenvalues --    1.21747   1.29521   1.35951   1.36864   1.47293
 Alpha virt. eigenvalues --    1.49354   1.87156   1.99062   2.00010   2.22728
 Alpha virt. eigenvalues --    2.39082   2.76436
          Condensed to atoms (all electrons):
               1          2          3          4          5          6
     1  C    5.855950   0.256623  -0.091686  -0.148978   0.399811  -0.037542
     2  C    0.256623   5.309752   0.525869  -0.091741  -0.022106   0.394731
     3  C   -0.091686   0.525869   5.310050   0.256693   0.002978  -0.032842
     4  C   -0.148978  -0.091741   0.256693   5.855947   0.002530   0.004422
     5  H    0.399811  -0.022106   0.002978   0.002530   0.482947  -0.001724
     6  H   -0.037542   0.394731  -0.032842   0.004422  -0.001724   0.483298
     7  H    0.004422  -0.032841   0.394719  -0.037540  -0.000041  -0.002180
     8  H    0.002530   0.002975  -0.022059   0.399827   0.000016  -0.000040
     9  C    0.274268  -0.104363  -0.104412   0.274217  -0.015289   0.003190
    10  H   -0.037409   0.002440   0.002431  -0.037422  -0.001796  -0.000057
    11  H   -0.041445   0.004973   0.004971  -0.041416  -0.001250  -0.000040
    12  C    0.181307  -0.169142  -0.011424  -0.092204  -0.051193   0.001255
    13  H   -0.023978  -0.006480   0.000025   0.001860   0.000093   0.000860
    14  H   -0.020761   0.005143   0.000492   0.001797  -0.002479  -0.000047
    15  C   -0.092232  -0.011512  -0.169486   0.181267   0.004625  -0.000434
    16  H    0.001796   0.000492   0.005140  -0.020664  -0.000032   0.000006
    17  H    0.001860   0.000018  -0.006527  -0.024093  -0.000033  -0.000005
               7          8          9         10         11         12
     1  C    0.004422   0.002530   0.274268  -0.037409  -0.041445   0.181307
     2  C   -0.032841   0.002975  -0.104363   0.002440   0.004973  -0.169142
     3  C    0.394719  -0.022059  -0.104412   0.002431   0.004971  -0.011424
     4  C   -0.037540   0.399827   0.274217  -0.037422  -0.041416  -0.092204
     5  H   -0.000041   0.000016  -0.015289  -0.001796  -0.001250  -0.051193
     6  H   -0.002180  -0.000040   0.003190  -0.000057  -0.000040   0.001255
     7  H    0.483283  -0.001726   0.003192  -0.000057  -0.000040  -0.000434
     8  H   -0.001726   0.482896  -0.015339  -0.001797  -0.001250   0.004621
     9  C    0.003192  -0.015339   5.586129   0.359725   0.382593  -0.202987
    10  H   -0.000057  -0.001797   0.359725   0.526251  -0.022542   0.009418
    11  H   -0.000040  -0.001250   0.382593  -0.022542   0.508084  -0.005001
    12  C   -0.000434   0.004621  -0.202987   0.009418  -0.005001   5.503095
    13  H   -0.000004  -0.000032   0.005948  -0.000095   0.000076   0.339478
    14  H    0.000006  -0.000032  -0.003213  -0.000026   0.001173   0.331877
    15  C    0.001255  -0.051153  -0.202532   0.009408  -0.005012   0.342483
    16  H   -0.000047  -0.002475  -0.003156  -0.000026   0.001158  -0.028745
    17  H    0.000868   0.000093   0.005959  -0.000095   0.000076  -0.026625
              13         14         15         16         17
     1  C   -0.023978  -0.020761  -0.092232   0.001796   0.001860
     2  C   -0.006480   0.005143  -0.011512   0.000492   0.000018
     3  C    0.000025   0.000492  -0.169486   0.005140  -0.006527
     4  C    0.001860   0.001797   0.181267  -0.020664  -0.024093
     5  H    0.000093  -0.002479   0.004625  -0.000032  -0.000033
     6  H    0.000860  -0.000047  -0.000434   0.000006  -0.000005
     7  H   -0.000004   0.000006   0.001255  -0.000047   0.000868
     8  H   -0.000032  -0.000032  -0.051153  -0.002475   0.000093
     9  C    0.005948  -0.003213  -0.202532  -0.003156   0.005959
    10  H   -0.000095  -0.000026   0.009408  -0.000026  -0.000095
    11  H    0.000076   0.001173  -0.005012   0.001158   0.000076
    12  C    0.339478   0.331877   0.342483  -0.028745  -0.026625
    13  H    0.664476  -0.052520  -0.026474   0.002253  -0.003856
    14  H   -0.052520   0.662380  -0.028894  -0.002543   0.002255
    15  C   -0.026474  -0.028894   5.503221   0.331642   0.339697
    16  H    0.002253  -0.002543   0.331642   0.662949  -0.052523
    17  H   -0.003856   0.002255   0.339697  -0.052523   0.663842
 Mulliken charges:
               1
     1  C   -0.484535
     2  C   -0.064831
     3  C   -0.064931
     4  C   -0.484499
     5  H    0.202942
     6  H    0.187149
     7  H    0.187166
     8  H    0.202946
     9  C   -0.243929
    10  H    0.191651
    11  H    0.214892
    12  C   -0.125780
    13  H    0.098372
    14  H    0.105390
    15  C   -0.125868
    16  H    0.104776
    17  H    0.099088
 Sum of Mulliken charges =  -0.00000
 Mulliken charges with hydrogens summed into heavy atoms:
               1
     1  C   -0.281593
     2  C    0.122318
     3  C    0.122235
     4  C   -0.281553
     9  C    0.162614
    12  C    0.077982
    15  C    0.077996
 Electronic spatial extent (au):  <R**2>=            584.1276
 Charge=             -0.0000 electrons
 Dipole moment (field-independent basis, Debye):
    X=             -0.2091    Y=             -0.0001    Z=              0.3024  Tot=              0.3677
 Quadrupole moment (field-independent basis, Debye-Ang):
   XX=            -44.4624   YY=            -42.1113   ZZ=            -44.9653
   XY=             -0.0092   XZ=              1.5040   YZ=              0.0030
 Traceless Quadrupole moment (field-independent basis, Debye-Ang):
   XX=             -0.6161   YY=              1.7351   ZZ=             -1.1189
   XY=             -0.0092   XZ=              1.5040   YZ=              0.0030
 Octapole moment (field-independent basis, Debye-Ang**2):
  XXX=             -1.7443  YYY=             -0.0361  ZZZ=              3.4694  XYY=             -4.1534
  XXY=              0.0150  XXZ=             -4.0352  XZZ=             -0.3473  YZZ=              0.0067
  YYZ=              1.3060  XYZ=             -0.0188
 Hexadecapole moment (field-independent basis, Debye-Ang**3):
 XXXX=           -304.1457 YYYY=           -274.6090 ZZZZ=           -216.1180 XXXY=             -0.0520
 XXXZ=             10.1103 YYYX=             -0.0270 YYYZ=              0.0476 ZZZX=              0.6418
 ZZZY=             -0.0085 XXYY=            -95.8788 XXZZ=            -82.2050 YYZZ=            -84.0531
 XXYZ=             -0.0042 YYXZ=              4.8755 ZZXY=              0.0174
 N-N= 3.105147762085D+02 E-N=-1.247732341701D+03  KE= 2.688114184405D+02
 Calling FoFJK, ICntrl=      2127 FMM=F ISym2X=0 I1Cent= 0 IOpClX= 0 NMat=1 NMatS=1 NMatT=0.
 ***** Axes restored to original set *****
 -------------------------------------------------------------------
 Center     Atomic                   Forces (Hartrees/Bohr)
 Number     Number              X              Y              Z
 -------------------------------------------------------------------
      1        6          -0.015441022   -0.033337401    0.032314387
      2        6          -0.039642461    0.032902014   -0.018679755
      3        6          -0.039679371   -0.032892784   -0.018724581
      4        6          -0.015502510    0.033233059    0.032383746
      5        1          -0.018432400   -0.001650279    0.009621475
      6        1           0.001016192    0.001215406   -0.000042782
      7        1           0.001017851   -0.001212485   -0.000041291
      8        1          -0.018424981    0.001622416    0.009598893
      9        6          -0.056611905   -0.000021328    0.056064285
     10        1          -0.001308357   -0.000007492    0.003764218
     11        1          -0.002110480    0.000002115   -0.002597074
     12        6           0.234321388    0.026792032   -0.107216297
     13        1          -0.054386489    0.016115352    0.056378766
     14        1          -0.077388411    0.015931007   -0.000891448
     15        6           0.234210662   -0.026486897   -0.107670083
     16        1          -0.077415842   -0.016180670   -0.000721136
     17        1          -0.054221862   -0.016024068    0.056458678
 -------------------------------------------------------------------
 Cartesian Forces:  Max     0.234321388 RMS     0.059010689

 GradGradGradGradGradGradGradGradGradGradGradGradGradGradGradGradGradGrad
 Berny optimization.
 FormGI is forming the generalized inverse of G from B-inverse, IUseBI=4.
 Internal  Forces:  Max     0.117563252 RMS     0.023308707
 Search for a local minimum.
 Step number   1 out of a maximum of  102
 All quantities printed in internal units (Hartrees-Bohrs-Radians)
 Mixed Optimization -- RFO/linear search
 Second derivative matrix not updated -- first step.
 ITU=  0
     Eigenvalues ---    0.01156   0.01452   0.01548   0.01837   0.02051
     Eigenvalues ---    0.03135   0.03156   0.03664   0.04716   0.04835
     Eigenvalues ---    0.04979   0.05264   0.05549   0.05934   0.06148
     Eigenvalues ---    0.06616   0.07034   0.07983   0.08263   0.08265
     Eigenvalues ---    0.09715   0.11176   0.13145   0.13314   0.15631
     Eigenvalues ---    0.15817   0.16138   0.16188   0.16495   0.16524
     Eigenvalues ---    0.16546   0.17368   0.24886   0.25027   0.31038
     Eigenvalues ---    0.34089   0.34276   0.34651   0.35530   0.35530
     Eigenvalues ---    0.35758   0.35759   0.464281000.000001000.00000
     Eigenvalues --- 1000.000001000.000001000.000001000.000001000.00000
     Eigenvalues --- 1000.000001000.000001000.000001000.000001000.00000
     Eigenvalues --- 1000.000001000.000001000.000001000.000001000.00000
     Eigenvalues --- 1000.000001000.000001000.000001000.000001000.00000
     Eigenvalues --- 1000.000001000.000001000.000001000.000001000.00000
     Eigenvalues --- 1000.000001000.000001000.000001000.000001000.00000
     Eigenvalues --- 1000.000001000.000001000.000001000.000001000.00000
     Eigenvalues --- 1000.000001000.000001000.000001000.000001000.00000
     Eigenvalues --- 1000.000001000.000001000.000001000.000001000.00000
     Eigenvalues --- 1000.000001000.000001000.000001000.000001000.00000
     Eigenvalues --- 1000.000001000.000001000.000001000.000001000.00000
     Eigenvalues --- 1000.000001000.000001000.000001000.000001000.00000
     Eigenvalues --- 1000.000001000.000001000.000001000.000001000.00000
     Eigenvalues --- 1000.000001000.000001000.000001000.000001000.00000
 RFO step:  Lambda=-1.24932115D-01 EMin= 1.15592103D-02
 Linear search not attempted -- first point.
 Maximum step size (   0.300) exceeded in Quadratic search.
    -- Step size scaled by   0.499
 Iteration  1 RMS(Cart)=  0.02404040 RMS(Int)=  0.00087198
 Iteration  2 RMS(Cart)=  0.00089954 RMS(Int)=  0.00022435
 Iteration  3 RMS(Cart)=  0.00000079 RMS(Int)=  0.00022435
 Iteration  1 RMS(Cart)=  0.00001668 RMS(Int)=  0.00000156
 Iteration  2 RMS(Cart)=  0.00000028 RMS(Int)=  0.00000157
 Variable       Old X    -DE/DX   Delta X   Delta X   Delta X     New X
                                 (Linear)    (Quad)   (Total)
    R1        2.78126   0.03920   0.00000   0.03953   0.03955   2.82081
    R2        2.04823   0.00465   0.00000   0.00483   0.00483   2.05306
    R3        2.90107   0.01983   0.00000   0.02125   0.02152   2.92259
    R4        2.64562   0.11753   0.00000   0.00000  -0.00000   2.64562
    R5        2.58151  -0.02697   0.00000  -0.02375  -0.02368   2.55783
    R6        2.04461  -0.00112   0.00000  -0.00116  -0.00116   2.04345
    R7        2.78132   0.03920   0.00000   0.03951   0.03954   2.82086
    R8        2.04462  -0.00112   0.00000  -0.00116  -0.00116   2.04345
    R9        2.04822   0.00464   0.00000   0.00482   0.00482   2.05305
   R10        2.90113   0.01979   0.00000   0.02123   0.02150   2.92263
   R11        2.64562   0.11756   0.00000   0.00000  -0.00000   2.64562
   R12        2.07180   0.00316   0.00000   0.00338   0.00338   2.07518
   R13        2.06867  -0.00325   0.00000  -0.00346  -0.00346   2.06521
   R14        2.55864  -0.07514   0.00000  -0.13094  -0.13094   2.42770
   R15        2.54038  -0.07370   0.00000  -0.12662  -0.12662   2.41376
   R16        3.26062  -0.03251   0.00000  -0.04428  -0.04472   3.21590
   R17        2.54260  -0.07378   0.00000  -0.12698  -0.12698   2.41562
   R18        2.55637  -0.07506   0.00000  -0.13056  -0.13056   2.42580
    A1        2.11751  -0.00256   0.00000  -0.01343  -0.01383   2.10369
    A2        1.81550  -0.00188   0.00000  -0.00409  -0.00489   1.81061
    A3        1.77220   0.00200   0.00000   0.00935   0.00947   1.78167
    A4        2.12010  -0.00858   0.00000  -0.02006  -0.02055   2.09955
    A5        1.89916   0.00291   0.00000   0.01677   0.01686   1.91602
    A6        1.65353   0.01463   0.00000   0.02893   0.02920   1.68273
    A7        1.89859   0.00079   0.00000  -0.00533  -0.00548   1.89311
    A8        2.16565   0.00021   0.00000   0.00351   0.00356   2.16920
    A9        2.21054  -0.00122   0.00000   0.00074   0.00081   2.21135
   A10        1.89853   0.00078   0.00000  -0.00537  -0.00551   1.89302
   A11        2.21056  -0.00121   0.00000   0.00076   0.00083   2.21139
   A12        2.16567   0.00022   0.00000   0.00351   0.00357   2.16923
   A13        2.11771  -0.00257   0.00000  -0.01342  -0.01382   2.10389
   A14        1.81549  -0.00186   0.00000  -0.00407  -0.00487   1.81062
   A15        1.77135   0.00204   0.00000   0.00941   0.00953   1.78088
   A16        2.11990  -0.00858   0.00000  -0.02010  -0.02059   2.09931
   A17        1.89940   0.00291   0.00000   0.01675   0.01685   1.91624
   A18        1.65415   0.01460   0.00000   0.02890   0.02916   1.68331
   A19        1.70689  -0.01440   0.00000  -0.03067  -0.03096   1.67593
   A20        1.93441   0.00930   0.00000   0.02318   0.02331   1.95772
   A21        1.98132  -0.00048   0.00000  -0.00636  -0.00656   1.97475
   A22        1.93428   0.00931   0.00000   0.02319   0.02331   1.95759
   A23        1.98126  -0.00048   0.00000  -0.00635  -0.00656   1.97470
   A24        1.91774  -0.00327   0.00000  -0.00331  -0.00331   1.91443
   A25        2.24198  -0.01320   0.00000  -0.03409  -0.03408   2.20790
   A26        2.23622  -0.01387   0.00000  -0.03586  -0.03585   2.20037
   A27        1.78249  -0.00280   0.00000   0.00344   0.00331   1.78579
   A28        1.47157   0.01945   0.00000   0.05077   0.05028   1.52185
   A29        1.84843   0.00817   0.00000   0.01505   0.01518   1.86361
   A30        1.83491   0.00918   0.00000   0.01381   0.01366   1.84857
   A31        1.78244  -0.00280   0.00000   0.00345   0.00332   1.78576
   A32        2.23671  -0.01380   0.00000  -0.03576  -0.03575   2.20096
   A33        2.24168  -0.01327   0.00000  -0.03421  -0.03420   2.20749
   A34        1.83605   0.00913   0.00000   0.01372   0.01357   1.84962
   A35        1.84719   0.00822   0.00000   0.01515   0.01527   1.86247
   A36        1.47149   0.01945   0.00000   0.05078   0.05029   1.52179
    D1        2.90730  -0.00597   0.00000  -0.01576  -0.01578   2.89152
    D2       -0.36537  -0.00776   0.00000  -0.02418  -0.02415  -0.38952
    D3        0.43876   0.01359   0.00000   0.03826   0.03823   0.47698
    D4       -2.83391   0.01180   0.00000   0.02984   0.02985  -2.80405
    D5       -1.27040  -0.00201   0.00000   0.00600   0.00583  -1.26458
    D6        1.74012  -0.00380   0.00000  -0.00242  -0.00255   1.73757
    D7       -0.65839  -0.01581   0.00000  -0.05090  -0.05050  -0.70889
    D8        1.36362  -0.00929   0.00000  -0.03209  -0.03205   1.33157
    D9       -2.75147  -0.00669   0.00000  -0.02308  -0.02306  -2.77453
   D10       -3.12567   0.00084   0.00000  -0.00002   0.00009  -3.12558
   D11       -1.10366   0.00737   0.00000   0.01879   0.01854  -1.08512
   D12        1.06443   0.00997   0.00000   0.02780   0.02753   1.09196
   D13        1.14202  -0.00996   0.00000  -0.03377  -0.03329   1.10873
   D14       -3.11915  -0.00344   0.00000  -0.01496  -0.01484  -3.13399
   D15       -0.95106  -0.00084   0.00000  -0.00596  -0.00585  -0.95691
   D16       -0.94758   0.00016   0.00000   0.00126   0.00126  -0.94632
   D17       -2.99917  -0.00002   0.00000  -0.00014  -0.00022  -2.99939
   D18        1.18025  -0.00061   0.00000   0.00171   0.00183   1.18208
   D19        1.30493  -0.00009   0.00000   0.00003  -0.00007   1.30486
   D20       -0.74666  -0.00028   0.00000  -0.00137  -0.00155  -0.74821
   D21       -2.85043  -0.00087   0.00000   0.00048   0.00050  -2.84993
   D22       -2.78663  -0.00162   0.00000  -0.00264  -0.00231  -2.78895
   D23        1.44496  -0.00180   0.00000  -0.00404  -0.00379   1.44117
   D24       -0.65880  -0.00240   0.00000  -0.00219  -0.00174  -0.66054
   D25        0.00005  -0.00000   0.00000   0.00002   0.00002   0.00007
   D26        3.00615  -0.00172   0.00000  -0.00846  -0.00840   2.99775
   D27       -3.00620   0.00171   0.00000   0.00847   0.00840  -2.99780
   D28       -0.00010  -0.00001   0.00000  -0.00001  -0.00001  -0.00011
   D29       -2.90724   0.00596   0.00000   0.01575   0.01577  -2.89147
   D30       -0.43883  -0.01360   0.00000  -0.03830  -0.03826  -0.47708
   D31        1.27074   0.00198   0.00000  -0.00605  -0.00587   1.26487
   D32        0.36557   0.00776   0.00000   0.02420   0.02417   0.38973
   D33        2.83398  -0.01180   0.00000  -0.02985  -0.02986   2.80412
   D34       -1.73964   0.00378   0.00000   0.00240   0.00252  -1.73711
   D35        0.65842   0.01582   0.00000   0.05092   0.05052   0.70894
   D36       -1.36370   0.00929   0.00000   0.03211   0.03207  -1.33163
   D37        2.75154   0.00669   0.00000   0.02310   0.02307   2.77462
   D38        3.12577  -0.00084   0.00000   0.00005  -0.00006   3.12571
   D39        1.10365  -0.00736   0.00000  -0.01875  -0.01850   1.08514
   D40       -1.06429  -0.00996   0.00000  -0.02777  -0.02750  -1.09179
   D41       -1.14127   0.00994   0.00000   0.03373   0.03325  -1.10802
   D42        3.11979   0.00342   0.00000   0.01493   0.01481   3.13460
   D43        0.95185   0.00081   0.00000   0.00592   0.00581   0.95766
   D44       -1.18215   0.00061   0.00000  -0.00166  -0.00178  -1.18392
   D45        2.99530   0.00007   0.00000   0.00031   0.00039   2.99568
   D46        0.94359  -0.00012   0.00000  -0.00108  -0.00108   0.94251
   D47        2.84869   0.00085   0.00000  -0.00046  -0.00048   2.84822
   D48        0.74295   0.00031   0.00000   0.00152   0.00169   0.74464
   D49       -1.30876   0.00013   0.00000   0.00013   0.00022  -1.30853
   D50        0.65691   0.00239   0.00000   0.00225   0.00180   0.65871
   D51       -1.44883   0.00185   0.00000   0.00422   0.00397  -1.44486
   D52        2.78265   0.00167   0.00000   0.00283   0.00250   2.78515
   D53        0.00133  -0.00004   0.00000  -0.00006  -0.00006   0.00127
   D54        2.36610  -0.01282   0.00000  -0.03249  -0.03270   2.33341
   D55       -2.37602   0.01272   0.00000   0.02973   0.02979  -2.34623
   D56        2.37981  -0.01276   0.00000  -0.02979  -0.02984   2.34996
   D57       -1.53860  -0.02554   0.00000  -0.06222  -0.06248  -1.60108
   D58        0.00246   0.00001   0.00000   0.00001   0.00001   0.00247
   D59       -2.36222   0.01278   0.00000   0.03243   0.03263  -2.32959
   D60        0.00256   0.00000   0.00000  -0.00000  -0.00000   0.00255
   D61        1.54362   0.02554   0.00000   0.06222   0.06248   1.60610
         Item               Value     Threshold  Converged?
 Maximum Force            0.075143     0.000450     NO 
 RMS     Force            0.017444     0.000300     NO 
 Maximum Displacement     0.086158     0.001800     NO 
 RMS     Displacement     0.024043     0.001200     NO 
 Predicted change in Energy=-5.436469D-02
 GradGradGradGradGradGradGradGradGradGradGradGradGradGradGradGradGradGrad

                          Input orientation:                          
 ---------------------------------------------------------------------
 Center     Atomic      Atomic             Coordinates (Angstroms)
 Number     Number       Type             X           Y           Z
 ---------------------------------------------------------------------
      1          6           0       -0.289728   -1.150016    0.356897
      2          6           0       -1.203584   -0.676217   -0.724105
      3          6           0       -1.203937    0.677330   -0.722597
      4          6           0       -0.290215    1.149075    0.359447
      5          1           0       -0.313854   -2.185214    0.685711
      6          1           0       -1.662306   -1.321772   -1.460408
      7          1           0       -1.662905    1.324317   -1.457492
      8          1           0       -0.314670    2.183443    0.690816
      9          6           0       -0.319186   -0.001636    1.392384
     10          1           0       -1.243153   -0.002406    1.985839
     11          1           0        0.546684   -0.002160    2.059175
     12          6           0        0.971028   -0.850486   -0.172986
     13          1           0        1.427431   -1.220603   -1.315404
     14          1           0        2.096357   -1.200386    0.319678
     15          6           0        0.970177    0.851295   -0.172282
     16          1           0        2.096937    1.203478    0.318026
     17          1           0        1.423191    1.221120   -1.315017
 ---------------------------------------------------------------------
                    Distance matrix (angstroms):
                    1          2          3          4          5
     1  C    0.000000
     2  C    1.492711   0.000000
     3  C    2.310905   1.353547   0.000000
     4  C    2.299093   2.310848   1.492733   0.000000
     5  H    1.086433   2.248617   3.312060   3.350298   0.000000
     6  H    2.283871   1.081346   2.179650   3.361487   2.677626
     7  H    3.361540   2.179672   1.081349   2.283912   4.327826
     8  H    3.350235   3.312072   2.248757   1.086425   4.368661
     9  C    1.546570   2.390971   2.391009   1.546587   2.295088
    10  H    2.208955   2.792737   2.792706   2.208880   2.705287
    11  H    2.216959   3.356254   3.356283   2.216939   2.718943
    12  C    1.400000   2.250120   2.714179   2.423317   2.042005
    13  H    2.397959   2.751042   3.298131   3.372063   2.822590
    14  H    2.386907   3.500550   3.937524   3.349220   2.629256
    15  C    2.423353   2.713492   2.249419   1.400000   3.406652
    16  H    3.352106   3.938620   3.500786   2.388132   4.174966
    17  H    3.369225   3.293783   2.747448   2.396827   4.315478
                    6          7          8          9         10
     6  H    0.000000
     7  H    2.646092   0.000000
     8  H    4.327865   2.677884   0.000000
     9  C    3.418355   3.418410   2.294949   0.000000
    10  H    3.713897   3.713881   2.705014   1.098137   0.000000
    11  H    4.359871   4.359906   2.718676   1.092860   1.791340
    12  C    2.968840   3.649292   3.406450   2.198996   3.206613
    13  H    3.094792   4.005869   4.318260   3.445093   4.417491
    14  H    4.160647   4.864618   4.171462   2.902163   3.919640
    15  C    3.648487   2.967935   2.042154   2.199575   3.207043
    16  H    4.865349   4.159745   2.629668   2.905890   3.923259
    17  H    4.000966   3.091106   2.823046   3.443984   4.416113
                   11         12         13         14         15
    11  H    0.000000
    12  C    2.425339   0.000000
    13  H    3.694334   1.284682   0.000000
    14  H    2.619748   1.277307   1.766738   0.000000
    15  C    2.426341   1.701781   2.410097   2.391589   0.000000
    16  H    2.624585   2.393227   2.998750   2.403864   1.278289
    17  H    3.694570   2.408368   2.441727   2.998178   1.283680
                   16         17
    16  H    0.000000
    17  H    1.766656   0.000000
 Stoichiometry    C7H10
 Framework group  C1[X(C7H10)]
 Deg. of freedom    45
 Full point group                 C1      NOp   1
 Largest Abelian subgroup         C1      NOp   1
 Largest concise Abelian subgroup C1      NOp   1
                         Standard orientation:                         
 ---------------------------------------------------------------------
 Center     Atomic      Atomic             Coordinates (Angstroms)
 Number     Number       Type             X           Y           Z
 ---------------------------------------------------------------------
      1          6           0       -0.060724   -1.149867    0.353068
      2          6           0       -1.285892   -0.679424   -0.358152
      3          6           0       -1.288942    0.674120   -0.357450
      4          6           0       -0.065803    1.149220    0.354212
      5          1           0        0.029543   -2.184656    0.671500
      6          1           0       -1.963878   -1.326930   -0.897021
      7          1           0       -1.969765    1.319154   -0.895711
      8          1           0        0.020084    2.183994    0.673879
      9          6           0        0.256854   -0.000118    1.337496
     10          1           0       -0.413870   -0.001947    2.206996
     11          1           0        1.296472    0.002043    1.674443
     12          6           0        0.947848   -0.848504   -0.569950
     13          1           0        0.994575   -1.219271   -1.799079
     14          1           0        2.174129   -1.195431   -0.483995
     15          6           0        0.943230    0.853271   -0.570054
     16          1           0        2.168395    1.208424   -0.487233
     17          1           0        0.984895    1.222436   -1.798799
 ---------------------------------------------------------------------
 Rotational constants (GHZ):           3.8370733           3.7231341           3.1134361
 Standard basis: 3-21G (6D, 7F)
 There are    83 symmetry adapted cartesian basis functions of A   symmetry.
 There are    83 symmetry adapted basis functions of A   symmetry.
    83 basis functions,   135 primitive gaussians,    83 cartesian basis functions
    26 alpha electrons       26 beta electrons
       nuclear repulsion energy       310.5806919577 Hartrees.
 NAtoms=   17 NActive=   17 NUniq=   17 SFac= 1.00D+00 NAtFMM=   60 NAOKFM=F Big=F
 Integral buffers will be    131072 words long.
 Raffenetti 2 integral format.
 Two-electron integral symmetry is turned on.
 One-electron integrals computed using PRISM.
 NBasis=    83 RedAO= T EigKep=  3.95D-03  NBF=    83
 NBsUse=    83 1.00D-06 EigRej= -1.00D+00 NBFU=    83
 Initial guess from the checkpoint file:  "C3.chk"
 B after Tr=     0.000000   -0.000000   -0.000000
         Rot=    0.999969    0.000010   -0.007869    0.000295 Ang=   0.90 deg.
 ExpMin= 1.83D-01 ExpMax= 1.72D+02 ExpMxC= 1.72D+02 IAcc=3 IRadAn=         5 AccDes= 0.00D+00
 Harris functional with IExCor=  402 and IRadAn=       5 diagonalized for initial guess.
 HarFok:  IExCor=  402 AccDes= 0.00D+00 IRadAn=         5 IDoV= 1 UseB2=F ITyADJ=14
 ICtDFT=  3500011 ScaDFX=  1.000000  1.000000  1.000000  1.000000
 FoFCou: FMM=F IPFlag=           0 FMFlag=      100000 FMFlg1=           0
         NFxFlg=           0 DoJE=T BraDBF=F KetDBF=T FulRan=T
         wScrn=  0.000000 ICntrl=       500 IOpCl=  0 I1Cent=   200000004 NGrid=           0
         NMat0=    1 NMatS0=      1 NMatT0=    0 NMatD0=    1 NMtDS0=    0 NMtDT0=    0
 Petite list used in FoFCou.
 Keep R1 ints in memory in canonical form, NReq=7891700.
 Requested convergence on RMS density matrix=1.00D-08 within 128 cycles.
 Requested convergence on MAX density matrix=1.00D-06.
 Requested convergence on             energy=1.00D-06.
 No special actions if energy rises.
 Integral accuracy reduced to 1.0D-05 until final iterations.
 Initial convergence to 1.0D-05 achieved.  Increase integral accuracy.
 SCF Done:  E(RB3LYP) =  -271.116351158     A.U. after   12 cycles
            NFock= 12  Conv=0.86D-08     -V/T= 2.0082
 Calling FoFJK, ICntrl=      2127 FMM=F ISym2X=0 I1Cent= 0 IOpClX= 0 NMat=1 NMatS=1 NMatT=0.
 ***** Axes restored to original set *****
 -------------------------------------------------------------------
 Center     Atomic                   Forces (Hartrees/Bohr)
 Number     Number              X              Y              Z
 -------------------------------------------------------------------
      1        6          -0.029528202   -0.032141764    0.032396261
      2        6          -0.029860153    0.020243519   -0.009896696
      3        6          -0.029893876   -0.020257000   -0.009905909
      4        6          -0.029574591    0.032045968    0.032475355
      5        1          -0.016308540   -0.000580176    0.007340427
      6        1           0.000582560    0.000080200    0.000180260
      7        1           0.000582629   -0.000078972    0.000184087
      8        1          -0.016303203    0.000562988    0.007314311
      9        6          -0.047989520   -0.000015051    0.037583605
     10        1          -0.000100147   -0.000002210    0.000145371
     11        1          -0.000091481   -0.000000127   -0.001861596
     12        6           0.214897876    0.023470315   -0.097881097
     13        1          -0.048046747    0.015535762    0.049686058
     14        1          -0.067623065    0.015154900    0.000320812
     15        6           0.214835958   -0.023187670   -0.098214997
     16        1          -0.067714671   -0.015394679    0.000444285
     17        1          -0.047864827   -0.015436000    0.049689462
 -------------------------------------------------------------------
 Cartesian Forces:  Max     0.214897876 RMS     0.053388124

 GradGradGradGradGradGradGradGradGradGradGradGradGradGradGradGradGradGrad
 Berny optimization.
 Using GEDIIS/GDIIS optimizer.
 FormGI is forming the generalized inverse of G from B-inverse, IUseBI=4.
 Internal  Forces:  Max     0.113003655 RMS     0.020896950
 Search for a local minimum.
 Step number   2 out of a maximum of  102
 All quantities printed in internal units (Hartrees-Bohrs-Radians)
 Mixed Optimization -- RFO/linear search
 Update second derivatives using D2CorX and points    1    2
 DE= -5.78D-02 DEPred=-5.44D-02 R= 1.06D+00
 TightC=F SS=  1.41D+00  RLast= 3.48D-01 DXNew= 5.0454D-01 1.0449D+00
 Trust test= 1.06D+00 RLast= 3.48D-01 DXMaxT set to 5.05D-01
 ITU=  1  0
 Use linear search instead of GDIIS.
 Linear search step of   0.600 exceeds DXMaxT=   0.505 but not scaled.
 Quartic linear search produced a step of  2.00000.
 Iteration  1 RMS(Cart)=  0.04093634 RMS(Int)=  0.01238687
 Iteration  2 RMS(Cart)=  0.01191080 RMS(Int)=  0.00137642
 Iteration  3 RMS(Cart)=  0.00006150 RMS(Int)=  0.00137459
 Iteration  4 RMS(Cart)=  0.00000007 RMS(Int)=  0.00137459
 Iteration  1 RMS(Cart)=  0.00010103 RMS(Int)=  0.00000947
 Iteration  2 RMS(Cart)=  0.00000169 RMS(Int)=  0.00000955
 Iteration  3 RMS(Cart)=  0.00000003 RMS(Int)=  0.00000955
 Variable       Old X    -DE/DX   Delta X   Delta X   Delta X     New X
                                 (Linear)    (Quad)   (Total)
    R1        2.82081   0.02659   0.07910   0.00000   0.07925   2.90006
    R2        2.05306   0.00314   0.00966   0.00000   0.00966   2.06272
    R3        2.92259   0.01399   0.04304   0.00000   0.04455   2.96715
    R4        2.64562   0.11297  -0.00000   0.00000   0.00000   2.64562
    R5        2.55783  -0.01522  -0.04735   0.00000  -0.04687   2.51096
    R6        2.04345  -0.00042  -0.00232   0.00000  -0.00232   2.04113
    R7        2.82086   0.02659   0.07907   0.00000   0.07922   2.90008
    R8        2.04345  -0.00042  -0.00232   0.00000  -0.00232   2.04113
    R9        2.05305   0.00313   0.00965   0.00000   0.00965   2.06269
   R10        2.92263   0.01397   0.04300   0.00000   0.04451   2.96714
   R11        2.64562   0.11300  -0.00000   0.00000   0.00000   2.64562
   R12        2.07518   0.00016   0.00676   0.00000   0.00676   2.08194
   R13        2.06521  -0.00121  -0.00693   0.00000  -0.00693   2.05828
   R14        2.42770  -0.06573  -0.26188   0.00000  -0.26188   2.16582
   R15        2.41376  -0.06361  -0.25323   0.00000  -0.25323   2.16053
   R16        3.21590  -0.02860  -0.08943   0.00000  -0.09201   3.12389
   R17        2.41562  -0.06376  -0.25396   0.00000  -0.25396   2.16165
   R18        2.42580  -0.06557  -0.26112   0.00000  -0.26112   2.16468
    A1        2.10369  -0.00254  -0.02766   0.00000  -0.03018   2.07351
    A2        1.81061  -0.00405  -0.00979   0.00000  -0.01465   1.79596
    A3        1.78167   0.00354   0.01894   0.00000   0.01985   1.80152
    A4        2.09955  -0.00575  -0.04111   0.00000  -0.04402   2.05553
    A5        1.91602   0.00255   0.03373   0.00000   0.03428   1.95030
    A6        1.68273   0.01089   0.05839   0.00000   0.05978   1.74251
    A7        1.89311   0.00072  -0.01095   0.00000  -0.01184   1.88127
    A8        2.16920  -0.00060   0.00711   0.00000   0.00742   2.17662
    A9        2.21135  -0.00023   0.00162   0.00000   0.00205   2.21340
   A10        1.89302   0.00072  -0.01103   0.00000  -0.01191   1.88111
   A11        2.21139  -0.00023   0.00166   0.00000   0.00209   2.21348
   A12        2.16923  -0.00060   0.00713   0.00000   0.00744   2.17667
   A13        2.10389  -0.00254  -0.02763   0.00000  -0.03016   2.07373
   A14        1.81062  -0.00405  -0.00974   0.00000  -0.01461   1.79601
   A15        1.78088   0.00357   0.01906   0.00000   0.01997   1.80085
   A16        2.09931  -0.00575  -0.04119   0.00000  -0.04409   2.05522
   A17        1.91624   0.00255   0.03370   0.00000   0.03425   1.95049
   A18        1.68331   0.01086   0.05832   0.00000   0.05971   1.74302
   A19        1.67593  -0.00784  -0.06192   0.00000  -0.06355   1.61238
   A20        1.95772   0.00591   0.04661   0.00000   0.04725   2.00497
   A21        1.97475  -0.00155  -0.01313   0.00000  -0.01433   1.96042
   A22        1.95759   0.00592   0.04662   0.00000   0.04726   2.00485
   A23        1.97470  -0.00155  -0.01312   0.00000  -0.01432   1.96039
   A24        1.91443  -0.00115  -0.00663   0.00000  -0.00664   1.90779
   A25        2.20790  -0.01179  -0.06816   0.00000  -0.06805   2.13984
   A26        2.20037  -0.01243  -0.07170   0.00000  -0.07160   2.12877
   A27        1.78579  -0.00273   0.00661   0.00000   0.00577   1.79157
   A28        1.52185   0.01746   0.10056   0.00000   0.09733   1.61918
   A29        1.86361   0.00743   0.03035   0.00000   0.03099   1.89459
   A30        1.84857   0.00763   0.02733   0.00000   0.02631   1.87488
   A31        1.78576  -0.00274   0.00663   0.00000   0.00579   1.79154
   A32        2.20096  -0.01237  -0.07150   0.00000  -0.07140   2.12956
   A33        2.20749  -0.01185  -0.06840   0.00000  -0.06829   2.13920
   A34        1.84962   0.00759   0.02714   0.00000   0.02612   1.87575
   A35        1.86247   0.00748   0.03055   0.00000   0.03119   1.89366
   A36        1.52179   0.01746   0.10059   0.00000   0.09735   1.61914
    D1        2.89152  -0.00604  -0.03156   0.00000  -0.03167   2.85985
    D2       -0.38952  -0.00688  -0.04830   0.00000  -0.04802  -0.43753
    D3        0.47698   0.01021   0.07645   0.00000   0.07588   0.55286
    D4       -2.80405   0.00937   0.05971   0.00000   0.05953  -2.74452
    D5       -1.26458  -0.00131   0.01165   0.00000   0.01059  -1.25399
    D6        1.73757  -0.00215  -0.00510   0.00000  -0.00576   1.73181
    D7       -0.70889  -0.01300  -0.10099   0.00000  -0.09837  -0.80726
    D8        1.33157  -0.00840  -0.06410   0.00000  -0.06367   1.26791
    D9       -2.77453  -0.00643  -0.04611   0.00000  -0.04583  -2.82036
   D10       -3.12558   0.00152   0.00019   0.00000   0.00077  -3.12481
   D11       -1.08512   0.00612   0.03708   0.00000   0.03547  -1.04965
   D12        1.09196   0.00809   0.05506   0.00000   0.05331   1.14527
   D13        1.10873  -0.00696  -0.06658   0.00000  -0.06366   1.04508
   D14       -3.13399  -0.00237  -0.02969   0.00000  -0.02895   3.12024
   D15       -0.95691  -0.00039  -0.01170   0.00000  -0.01111  -0.96802
   D16       -0.94632  -0.00049   0.00252   0.00000   0.00261  -0.94371
   D17       -2.99939  -0.00140  -0.00043   0.00000  -0.00089  -3.00027
   D18        1.18208  -0.00105   0.00366   0.00000   0.00435   1.18643
   D19        1.30486   0.00015  -0.00014   0.00000  -0.00068   1.30418
   D20       -0.74821  -0.00075  -0.00309   0.00000  -0.00418  -0.75239
   D21       -2.84993  -0.00040   0.00100   0.00000   0.00106  -2.84887
   D22       -2.78895   0.00032  -0.00463   0.00000  -0.00259  -2.79154
   D23        1.44117  -0.00058  -0.00758   0.00000  -0.00610   1.43508
   D24       -0.66054  -0.00023  -0.00348   0.00000  -0.00086  -0.66140
   D25        0.00007   0.00000   0.00003   0.00000   0.00003   0.00009
   D26        2.99775  -0.00091  -0.01679   0.00000  -0.01630   2.98145
   D27       -2.99780   0.00090   0.01680   0.00000   0.01631  -2.98149
   D28       -0.00011  -0.00000  -0.00002   0.00000  -0.00002  -0.00013
   D29       -2.89147   0.00603   0.03155   0.00000   0.03166  -2.85981
   D30       -0.47708  -0.01021  -0.07652   0.00000  -0.07595  -0.55303
   D31        1.26487   0.00129  -0.01174   0.00000  -0.01068   1.25419
   D32        0.38973   0.00688   0.04834   0.00000   0.04805   0.43778
   D33        2.80412  -0.00937  -0.05973   0.00000  -0.05955   2.74457
   D34       -1.73711   0.00213   0.00505   0.00000   0.00572  -1.73140
   D35        0.70894   0.01300   0.10103   0.00000   0.09841   0.80735
   D36       -1.33163   0.00841   0.06414   0.00000   0.06372  -1.26791
   D37        2.77462   0.00643   0.04615   0.00000   0.04587   2.82048
   D38        3.12571  -0.00152  -0.00012   0.00000  -0.00070   3.12501
   D39        1.08514  -0.00611  -0.03701   0.00000  -0.03540   1.04975
   D40       -1.09179  -0.00809  -0.05500   0.00000  -0.05325  -1.14504
   D41       -1.10802   0.00694   0.06651   0.00000   0.06358  -1.04443
   D42        3.13460   0.00235   0.02962   0.00000   0.02889  -3.11970
   D43        0.95766   0.00037   0.01162   0.00000   0.01104   0.96870
   D44       -1.18392   0.00104  -0.00356   0.00000  -0.00424  -1.18817
   D45        2.99568   0.00144   0.00077   0.00000   0.00122   2.99691
   D46        0.94251   0.00054  -0.00216   0.00000  -0.00226   0.94025
   D47        2.84822   0.00039  -0.00095   0.00000  -0.00101   2.84721
   D48        0.74464   0.00079   0.00338   0.00000   0.00446   0.74910
   D49       -1.30853  -0.00012   0.00045   0.00000   0.00098  -1.30756
   D50        0.65871   0.00022   0.00360   0.00000   0.00099   0.65970
   D51       -1.44486   0.00062   0.00793   0.00000   0.00645  -1.43841
   D52        2.78515  -0.00028   0.00501   0.00000   0.00297   2.78812
   D53        0.00127  -0.00004  -0.00012   0.00000  -0.00012   0.00114
   D54        2.33341  -0.01203  -0.06539   0.00000  -0.06666   2.26675
   D55       -2.34623   0.01148   0.05958   0.00000   0.06000  -2.28623
   D56        2.34996  -0.01151  -0.05969   0.00000  -0.06010   2.28986
   D57       -1.60108  -0.02351  -0.12495   0.00000  -0.12664  -1.72772
   D58        0.00247   0.00000   0.00002   0.00000   0.00002   0.00249
   D59       -2.32959   0.01200   0.06526   0.00000   0.06653  -2.26306
   D60        0.00255  -0.00000  -0.00000   0.00000  -0.00000   0.00255
   D61        1.60610   0.02351   0.12497   0.00000   0.12665   1.73275
         Item               Value     Threshold  Converged?
 Maximum Force            0.065729     0.000450     NO 
 RMS     Force            0.014651     0.000300     NO 
 Maximum Displacement     0.168194     0.001800     NO 
 RMS     Displacement     0.048106     0.001200     NO 
 Predicted change in Energy=-8.693487D-02
 GradGradGradGradGradGradGradGradGradGradGradGradGradGradGradGradGradGrad

                          Input orientation:                          
 ---------------------------------------------------------------------
 Center     Atomic      Atomic             Coordinates (Angstroms)
 Number     Number       Type             X           Y           Z
 ---------------------------------------------------------------------
      1          6           0       -0.219062   -1.133544    0.339373
      2          6           0       -1.197948   -0.663816   -0.745193
      3          6           0       -1.198344    0.664926   -0.743757
      4          6           0       -0.219582    1.132662    0.341789
      5          1           0       -0.268820   -2.169455    0.679787
      6          1           0       -1.667206   -1.310464   -1.472034
      7          1           0       -1.667870    1.312930   -1.469218
      8          1           0       -0.269657    2.167705    0.684743
      9          6           0       -0.326097   -0.001616    1.422260
     10          1           0       -1.262659   -0.002367    2.002452
     11          1           0        0.521393   -0.002124    2.106443
     12          6           0        1.033577   -0.826107   -0.205034
     13          1           0        1.363043   -1.190146   -1.240639
     14          1           0        2.007612   -1.168157    0.286285
     15          6           0        1.032748    0.826983   -0.204316
     16          1           0        2.007933    1.170709    0.284939
     17          1           0        1.359205    1.191041   -1.240200
 ---------------------------------------------------------------------
                    Distance matrix (angstroms):
                    1          2          3          4          5
     1  C    0.000000
     2  C    1.534647   0.000000
     3  C    2.316604   1.328743   0.000000
     4  C    2.266207   2.316476   1.534654   0.000000
     5  H    1.091544   2.271737   3.305179   3.319735   0.000000
     6  H    2.325858   1.080118   2.156938   3.369634   2.706230
     7  H    3.369759   2.156981   1.080119   2.325893   4.324646
     8  H    3.319651   3.305140   2.271875   1.091530   4.337162
     9  C    1.570146   2.428268   2.428317   1.570143   2.292176
    10  H    2.265940   2.826880   2.826850   2.265856   2.726431
    11  H    2.225066   3.394966   3.395010   2.225036   2.712399
    12  C    1.400000   2.301697   2.737676   2.388765   2.069717
    13  H    2.236671   2.661045   3.201388   3.225556   2.703711
    14  H    2.227576   3.404984   3.833971   3.202693   2.517853
    15  C    2.388784   2.736975   2.301094   1.400000   3.384428
    16  H    3.205004   3.834622   3.405032   2.228565   4.061552
    17  H    3.223302   3.197587   2.657877   2.235769   4.198779
                    6          7          8          9         10
     6  H    0.000000
     7  H    2.623396   0.000000
     8  H    4.324637   2.706508   0.000000
     9  C    3.447984   3.448047   2.291957   0.000000
    10  H    3.734545   3.734527   2.726100   1.101713   0.000000
    11  H    4.393998   4.394040   2.712037   1.089195   1.787081
    12  C    3.022271   3.670348   3.384232   2.275210   3.290021
    13  H    3.041451   3.937520   4.200948   3.369988   4.338521
    14  H    4.076300   4.769355   4.058657   2.845602   3.872850
    15  C    3.669543   3.021499   2.069836   2.275694   3.290370
    16  H    4.769677   4.075392   2.518186   2.848779   3.875917
    17  H    3.933248   3.038172   2.704158   3.369179   4.337417
                   11         12         13         14         15
    11  H    0.000000
    12  C    2.506831   0.000000
    13  H    3.650031   1.146102   0.000000
    14  H    2.623253   1.143301   1.657543   0.000000
    15  C    2.507689   1.653090   2.291696   2.274122   0.000000
    16  H    2.627397   2.275240   2.883905   2.338867   1.143898
    17  H    3.650423   2.290522   2.381191   2.883818   1.145499
                   16         17
    16  H    0.000000
    17  H    1.657501   0.000000
 Stoichiometry    C7H10
 Framework group  C1[X(C7H10)]
 Deg. of freedom    45
 Full point group                 C1      NOp   1
 Largest Abelian subgroup         C1      NOp   1
 Largest concise Abelian subgroup C1      NOp   1
                         Standard orientation:                         
 ---------------------------------------------------------------------
 Center     Atomic      Atomic             Coordinates (Angstroms)
 Number     Number       Type             X           Y           Z
 ---------------------------------------------------------------------
      1          6           0       -0.016496   -1.133325    0.331921
      2          6           0       -1.314730   -0.666130   -0.339989
      3          6           0       -1.316812    0.662611   -0.339237
      4          6           0       -0.019912    1.132879    0.333120
      5          1           0        0.058206   -2.168928    0.668692
      6          1           0       -2.008301   -1.314218   -0.855349
      7          1           0       -2.012306    1.309174   -0.853921
      8          1           0        0.051934    2.168229    0.671243
      9          6           0        0.261744   -0.000355    1.382787
     10          1           0       -0.411367   -0.001748    2.254964
     11          1           0        1.295544    0.001050    1.725715
     12          6           0        0.964610   -0.824774   -0.617936
     13          1           0        0.909956   -1.189502   -1.703079
     14          1           0        2.049723   -1.164952   -0.499843
     15          6           0        0.961331    0.828313   -0.617881
     16          1           0        2.045652    1.173910   -0.502501
     17          1           0        0.902549    1.191677   -1.702629
 ---------------------------------------------------------------------
 Rotational constants (GHZ):           3.8655674           3.6345633           3.1382468
 Standard basis: 3-21G (6D, 7F)
 There are    83 symmetry adapted cartesian basis functions of A   symmetry.
 There are    83 symmetry adapted basis functions of A   symmetry.
    83 basis functions,   135 primitive gaussians,    83 cartesian basis functions
    26 alpha electrons       26 beta electrons
       nuclear repulsion energy       311.1404696061 Hartrees.
 NAtoms=   17 NActive=   17 NUniq=   17 SFac= 1.00D+00 NAtFMM=   60 NAOKFM=F Big=F
 Integral buffers will be    131072 words long.
 Raffenetti 2 integral format.
 Two-electron integral symmetry is turned on.
 One-electron integrals computed using PRISM.
 NBasis=    83 RedAO= T EigKep=  4.06D-03  NBF=    83
 NBsUse=    83 1.00D-06 EigRej= -1.00D+00 NBFU=    83
 Initial guess from the checkpoint file:  "C3.chk"
 B after Tr=     0.000000    0.000000   -0.000000
         Rot=    0.999962   -0.000011   -0.008654    0.000358 Ang=  -0.99 deg.
 ExpMin= 1.83D-01 ExpMax= 1.72D+02 ExpMxC= 1.72D+02 IAcc=3 IRadAn=         5 AccDes= 0.00D+00
 Harris functional with IExCor=  402 and IRadAn=       5 diagonalized for initial guess.
 HarFok:  IExCor=  402 AccDes= 0.00D+00 IRadAn=         5 IDoV= 1 UseB2=F ITyADJ=14
 ICtDFT=  3500011 ScaDFX=  1.000000  1.000000  1.000000  1.000000
 FoFCou: FMM=F IPFlag=           0 FMFlag=      100000 FMFlg1=           0
         NFxFlg=           0 DoJE=T BraDBF=F KetDBF=T FulRan=T
         wScrn=  0.000000 ICntrl=       500 IOpCl=  0 I1Cent=   200000004 NGrid=           0
         NMat0=    1 NMatS0=      1 NMatT0=    0 NMatD0=    1 NMtDS0=    0 NMtDT0=    0
 Petite list used in FoFCou.
 Keep R1 ints in memory in canonical form, NReq=7891700.
 Requested convergence on RMS density matrix=1.00D-08 within 128 cycles.
 Requested convergence on MAX density matrix=1.00D-06.
 Requested convergence on             energy=1.00D-06.
 No special actions if energy rises.
 Integral accuracy reduced to 1.0D-05 until final iterations.
 Initial convergence to 1.0D-05 achieved.  Increase integral accuracy.
 SCF Done:  E(RB3LYP) =  -271.194627010     A.U. after   12 cycles
            NFock= 12  Conv=0.48D-08     -V/T= 2.0071
 Calling FoFJK, ICntrl=      2127 FMM=F ISym2X=0 I1Cent= 0 IOpClX= 0 NMat=1 NMatS=1 NMatT=0.
 ***** Axes restored to original set *****
 -------------------------------------------------------------------
 Center     Atomic                   Forces (Hartrees/Bohr)
 Number     Number              X              Y              Z
 -------------------------------------------------------------------
      1        6          -0.059636814   -0.033309949    0.035312015
      2        6          -0.011753708   -0.007315955    0.003997664
      3        6          -0.011778591    0.007269660    0.004060232
      4        6          -0.059654847    0.033217989    0.035427773
      5        1          -0.011870657    0.001072497    0.002891164
      6        1          -0.000322100   -0.002138628    0.000537928
      7        1          -0.000324999    0.002136336    0.000546058
      8        1          -0.011868910   -0.001069025    0.002859626
      9        6          -0.028039169   -0.000000918    0.003872928
     10        1           0.002080604    0.000006019   -0.006651403
     11        1           0.003662684   -0.000003655    0.000174141
     12        6           0.153509485    0.028289322   -0.068974495
     13        1          -0.029845482    0.006686085    0.014295338
     14        1          -0.028921258    0.006611380    0.013273206
     15        6           0.153577914   -0.028085371   -0.069024319
     16        1          -0.029111523   -0.006802144    0.013259516
     17        1          -0.029702630   -0.006563643    0.014142628
 -------------------------------------------------------------------
 Cartesian Forces:  Max     0.153577914 RMS     0.038621613

 GradGradGradGradGradGradGradGradGradGradGradGradGradGradGradGradGradGrad
 Berny optimization.
 Using GEDIIS/GDIIS optimizer.
 FormGI is forming the generalized inverse of G from B-inverse, IUseBI=4.
 Internal  Forces:  Max     0.106428581 RMS     0.015598374
 Search for a local minimum.
 Step number   3 out of a maximum of  102
 All quantities printed in internal units (Hartrees-Bohrs-Radians)
 Mixed Optimization -- RFO/linear search
 Update second derivatives using D2CorX and points    2    3
 ITU=  0  1  0
 Use linear search instead of GDIIS.
     Eigenvalues ---    0.01170   0.01532   0.01701   0.01834   0.02070
     Eigenvalues ---    0.03298   0.03400   0.04341   0.04833   0.05151
     Eigenvalues ---    0.05224   0.05274   0.05291   0.05607   0.05905
     Eigenvalues ---    0.06546   0.07266   0.07472   0.07753   0.07905
     Eigenvalues ---    0.09376   0.10798   0.12721   0.12983   0.15455
     Eigenvalues ---    0.15710   0.16159   0.16285   0.16520   0.16648
     Eigenvalues ---    0.17524   0.17539   0.24653   0.25536   0.30762
     Eigenvalues ---    0.33861   0.34148   0.34311   0.35525   0.35530
     Eigenvalues ---    0.35758   0.35765   0.468431000.000001000.00000
     Eigenvalues --- 1000.000001000.000001000.000001000.000001000.00000
     Eigenvalues --- 1000.000001000.000001000.000001000.000001000.00000
     Eigenvalues --- 1000.000001000.000001000.000001000.000001000.00000
     Eigenvalues --- 1000.000001000.000001000.000001000.000001000.00000
     Eigenvalues --- 1000.000001000.000001000.000001000.000001000.00000
     Eigenvalues --- 1000.000001000.000001000.000001000.000001000.00000
     Eigenvalues --- 1000.000001000.000001000.000001000.000001000.00000
     Eigenvalues --- 1000.000001000.000001000.000001000.000001000.00000
     Eigenvalues --- 1000.000001000.000001000.000001000.000001000.00000
     Eigenvalues --- 1000.000001000.000001000.000001000.000001000.00000
     Eigenvalues --- 1000.000001000.000001000.000001000.000001000.00000
     Eigenvalues --- 1000.000001000.000001000.000001000.000001000.00000
     Eigenvalues --- 1000.000001000.000001000.000001000.000001000.00000
     Eigenvalues --- 1000.000001000.000001000.000001000.000001000.00000
 RFO step:  Lambda=-1.76117021D-02 EMin= 1.17038343D-02
 Quartic linear search produced a step of  0.46525.
 Iteration  1 RMS(Cart)=  0.04215953 RMS(Int)=  0.00321268
 Iteration  2 RMS(Cart)=  0.00292744 RMS(Int)=  0.00146442
 Iteration  3 RMS(Cart)=  0.00000729 RMS(Int)=  0.00146440
 Iteration  4 RMS(Cart)=  0.00000001 RMS(Int)=  0.00146440
 Iteration  1 RMS(Cart)=  0.00001631 RMS(Int)=  0.00000158
 Iteration  2 RMS(Cart)=  0.00000029 RMS(Int)=  0.00000159
 Variable       Old X    -DE/DX   Delta X   Delta X   Delta X     New X
                                 (Linear)    (Quad)   (Total)
    R1        2.90006   0.00510   0.03687  -0.01584   0.02102   2.92108
    R2        2.06272   0.00042   0.00449  -0.00242   0.00207   2.06479
    R3        2.96715   0.00358   0.02073  -0.02291  -0.00187   2.96527
    R4        2.64562   0.10640   0.00000   0.00000  -0.00000   2.64562
    R5        2.51096   0.01147  -0.02181   0.04118   0.01934   2.53030
    R6        2.04113   0.00106  -0.00108   0.00462   0.00354   2.04467
    R7        2.90008   0.00511   0.03686  -0.01582   0.02103   2.92111
    R8        2.04113   0.00106  -0.00108   0.00461   0.00353   2.04466
    R9        2.06269   0.00043   0.00449  -0.00240   0.00208   2.06478
   R10        2.96714   0.00358   0.02071  -0.02282  -0.00181   2.96533
   R11        2.64562   0.10643   0.00000   0.00000  -0.00000   2.64562
   R12        2.08194  -0.00527   0.00314  -0.02158  -0.01843   2.06350
   R13        2.05828   0.00296  -0.00322   0.01353   0.01031   2.06859
   R14        2.16582  -0.02362  -0.12184   0.00565  -0.11619   2.04963
   R15        2.16053  -0.02091  -0.11782   0.02028  -0.09753   2.06299
   R16        3.12389  -0.01651  -0.04281  -0.00219  -0.04539   3.07849
   R17        2.16165  -0.02119  -0.11815   0.01866  -0.09950   2.06216
   R18        2.16468  -0.02334  -0.12149   0.00736  -0.11413   2.05055
    A1        2.07351  -0.00270  -0.01404  -0.02547  -0.04477   2.02874
    A2        1.79596  -0.00720  -0.00682  -0.04583  -0.05575   1.74021
    A3        1.80152   0.00634   0.00924   0.04084   0.05066   1.85219
    A4        2.05553   0.00026  -0.02048   0.00358  -0.02113   2.03440
    A5        1.95030   0.00189   0.01595   0.04547   0.06238   2.01268
    A6        1.74251   0.00280   0.02781  -0.01509   0.01380   1.75631
    A7        1.88127   0.00040  -0.00551   0.00367  -0.00257   1.87870
    A8        2.17662  -0.00201   0.00345  -0.01468  -0.01095   2.16567
    A9        2.21340   0.00177   0.00095   0.01388   0.01518   2.22858
   A10        1.88111   0.00042  -0.00554   0.00376  -0.00251   1.87860
   A11        2.21348   0.00176   0.00097   0.01382   0.01514   2.22861
   A12        2.17667  -0.00202   0.00346  -0.01472  -0.01098   2.16569
   A13        2.07373  -0.00270  -0.01403  -0.02546  -0.04476   2.02897
[...]
 ! D11   D(5,1,9,10)           -59.6354         -DE/DX =    0.0006              !
 ! D12   D(5,1,9,11)            68.3779         -DE/DX =   -0.0004              !
 ! D13   D(12,1,9,4)            55.7803         -DE/DX =    0.0023              !
 ! D14   D(12,1,9,10)          172.2294         -DE/DX =    0.0014              !
 ! D15   D(12,1,9,11)          -59.7573         -DE/DX =    0.0005              !
 ! D16   D(2,1,12,13)          -53.3008         -DE/DX =   -0.0003              !
 ! D17   D(2,1,12,14)         -176.1626         -DE/DX =   -0.0012              !
 ! D18   D(2,1,12,15)           66.9598         -DE/DX =   -0.0006              !
 ! D19   D(5,1,12,13)           76.463          -DE/DX =    0.0001              !
 ! D20   D(5,1,12,14)          -46.3988         -DE/DX =   -0.0008              !
 ! D21   D(5,1,12,15)         -163.2765         -DE/DX =   -0.0002              !
 ! D22   D(9,1,12,13)         -156.6023         -DE/DX =    0.0017              !
 ! D23   D(9,1,12,14)           80.5359         -DE/DX =    0.0007              !
 ! D24   D(9,1,12,15)          -36.3417         -DE/DX =    0.0013              !
 ! D25   D(1,2,3,4)              0.0022         -DE/DX =    0.0                 !
 ! D26   D(1,2,3,7)            174.2316         -DE/DX =    0.0021              !
 ! D27   D(6,2,3,4)           -174.2307         -DE/DX =   -0.0022              !
 ! D28   D(6,2,3,7)             -0.0013         -DE/DX =    0.0                 !
 ! D29   D(2,3,4,8)           -158.9337         -DE/DX =    0.0023              !
 ! D30   D(2,3,4,9)            -36.287          -DE/DX =    0.0018              !
 ! D31   D(2,3,4,15)            69.7104         -DE/DX =    0.0042              !
 ! D32   D(7,3,4,8)             26.582          -DE/DX =    0.0003              !
 ! D33   D(7,3,4,9)            149.2287         -DE/DX =   -0.0003              !
 ! D34   D(7,3,4,15)          -104.7739         -DE/DX =    0.0021              !
 ! D35   D(3,4,9,1)             54.1299         -DE/DX =   -0.0012              !
 ! D36   D(3,4,9,10)           -62.3209         -DE/DX =   -0.0002              !
 ! D37   D(3,4,9,11)           169.6672         -DE/DX =    0.0007              !
 ! D38   D(8,4,9,1)            176.0883         -DE/DX =   -0.0015              !
 ! D39   D(8,4,9,10)            59.6375         -DE/DX =   -0.0006              !
 ! D40   D(8,4,9,11)           -68.3744         -DE/DX =    0.0004              !
 ! D41   D(15,4,9,1)           -55.7752         -DE/DX =   -0.0023              !
 ! D42   D(15,4,9,10)         -172.226          -DE/DX =   -0.0014              !
 ! D43   D(15,4,9,11)           59.7621         -DE/DX =   -0.0005              !
 ! D44   D(3,4,15,12)          -66.9743         -DE/DX =    0.0006              !
 ! D45   D(3,4,15,16)          176.1389         -DE/DX =    0.0012              !
 ! D46   D(3,4,15,17)           53.2758         -DE/DX =    0.0003              !
 ! D47   D(8,4,15,12)          163.2592         -DE/DX =    0.0002              !
 ! D48   D(8,4,15,16)           46.3724         -DE/DX =    0.0009              !
 ! D49   D(8,4,15,17)          -76.4908         -DE/DX =   -0.0001              !
 ! D50   D(9,4,15,12)           36.3271         -DE/DX =   -0.0013              !
 ! D51   D(9,4,15,16)          -80.5597         -DE/DX =   -0.0007              !
 ! D52   D(9,4,15,17)          156.5771         -DE/DX =   -0.0017              !
 ! D53   D(1,12,15,4)            0.0093         -DE/DX =    0.0                 !
 ! D54   D(1,12,15,16)         120.1273         -DE/DX =   -0.0005              !
 ! D55   D(1,12,15,17)        -122.8658         -DE/DX =    0.0004              !
 ! D56   D(13,12,15,4)         122.8932         -DE/DX =   -0.0004              !
 ! D57   D(13,12,15,16)       -116.9887         -DE/DX =   -0.0009              !
 ! D58   D(13,12,15,17)          0.0181         -DE/DX =    0.0                 !
 ! D59   D(14,12,15,4)        -120.0996         -DE/DX =    0.0005              !
 ! D60   D(14,12,15,16)          0.0185         -DE/DX =    0.0                 !
 ! D61   D(14,12,15,17)        117.0253         -DE/DX =    0.0009              !
 --------------------------------------------------------------------------------
 GradGradGradGradGradGradGradGradGradGradGradGradGradGradGradGradGradGrad

                          Input orientation:                          
 ---------------------------------------------------------------------
 Center     Atomic      Atomic             Coordinates (Angstroms)
 Number     Number       Type             X           Y           Z
 ---------------------------------------------------------------------
      1          6           0       -0.117215   -1.129021    0.296451
      2          6           0       -1.191108   -0.668680   -0.726503
      3          6           0       -1.191532    0.669166   -0.725354
      4          6           0       -0.117884    1.128392    0.298354
      5          1           0       -0.253888   -2.149812    0.659666
      6          1           0       -1.745814   -1.334714   -1.374287
      7          1           0       -1.746640    1.335969   -1.372001
      8          1           0       -0.255119    2.148451    0.663404
      9          6           0       -0.320133   -0.001299    1.377448
     10          1           0       -1.315236   -0.001949    1.823616
     11          1           0        0.464202   -0.001720    2.143364
     12          6           0        1.134108   -0.808068   -0.243161
     13          1           0        1.304395   -1.192667   -1.254957
     14          1           0        1.971935   -1.155070    0.377727
     15          6           0        1.133569    0.809104   -0.241944
     16          1           0        1.971331    1.155830    0.379172
     17          1           0        1.303297    1.195249   -1.253314
 ---------------------------------------------------------------------
                    Distance matrix (angstroms):
                    1          2          3          4          5
     1  C    0.000000
     2  C    1.552930   0.000000
     3  C    2.330605   1.337847   0.000000
     4  C    2.257414   2.330581   1.552928   0.000000
     5  H    1.092071   2.234635   3.277818   3.300858   0.000000
     6  H    2.342223   1.082093   2.178044   3.393342   2.650885
     7  H    3.393366   2.178050   1.082092   2.342225   4.301936
     8  H    3.300832   3.277826   2.234681   1.092069   4.298265
     9  C    1.575274   2.372889   2.372896   1.575294   2.266210
    10  H    2.244500   2.638758   2.638740   2.244493   2.663560
    11  H    2.240522   3.379500   3.379510   2.240544   2.707639
    12  C    1.400000   2.379007   2.797022   2.368670   2.131175
    13  H    2.105206   2.604105   3.158568   3.134161   2.647670
    14  H    2.090892   3.385371   3.814728   3.096424   2.454239
    15  C    2.368683   2.796920   2.378941   1.400000   3.390151
    16  H    3.096678   3.814757   3.385339   2.090958   3.994690
    17  H    3.133984   3.158134   2.603781   2.105208   4.156170
                    6          7          8          9         10
     6  H    0.000000
     7  H    2.670684   0.000000
     8  H    4.301952   2.650969   0.000000
     9  C    3.373812   3.373823   2.266166   0.000000
    10  H    3.491167   3.491147   2.663487   1.090549   0.000000
    11  H    4.362902   4.362915   2.707571   1.096270   1.807938
    12  C    3.138590   3.764290   3.390106   2.322082   3.304645
    13  H    3.055846   3.964406   4.156352   3.314816   4.214012
    14  H    4.113816   4.805687   3.994325   2.753943   3.771707
    15  C    3.764173   3.138506   2.131187   2.322161   3.304692
    16  H    4.805683   4.113680   2.454214   2.754326   3.772055
    17  H    3.963889   3.055487   2.647842   3.314839   4.213965
                   11         12         13         14         15
    11  H    0.000000
    12  C    2.606620   0.000000
    13  H    3.697684   1.095740   0.000000
    14  H    2.592479   1.099030   1.764279   0.000000
    15  C    2.606756   1.617173   2.249993   2.223698   0.000000
    16  H    2.593017   2.223766   2.937791   2.310901   1.099022
    17  H    3.697869   2.249959   2.387917   2.937920   1.095804
                   16         17
    16  H    0.000000
    17  H    1.764323   0.000000
 Stoichiometry    C7H10
 Framework group  C1[X(C7H10)]
 Deg. of freedom    45
 Full point group                 C1      NOp   1
 Largest Abelian subgroup         C1      NOp   1
 Largest concise Abelian subgroup C1      NOp   1
                         Standard orientation:                         
 ---------------------------------------------------------------------
 Center     Atomic      Atomic             Coordinates (Angstroms)
 Number     Number       Type             X           Y           Z
 ---------------------------------------------------------------------
      1          6           0        0.006912   -1.128733    0.287310
      2          6           0       -1.307784   -0.669053   -0.399613
      3          6           0       -1.307982    0.668793   -0.399474
      4          6           0        0.006613    1.128680    0.287498
      5          1           0       -0.024043   -2.149214    0.674971
      6          1           0       -2.019777   -1.335524   -0.868449
      7          1           0       -2.020154    1.335160   -0.868184
      8          1           0       -0.024539    2.149051    0.675428
      9          6           0        0.110369   -0.000118    1.381390
     10          1           0       -0.722793   -0.000266    2.085051
     11          1           0        1.075739   -0.000041    1.900878
     12          6           0        1.060491   -0.808395   -0.577186
     13          1           0        0.944727   -1.193827   -1.596345
     14          1           0        2.037244   -1.155023   -0.211578
     15          6           0        1.060179    0.808778   -0.577175
     16          1           0        2.036877    1.155878   -0.211892
     17          1           0        0.943932    1.194089   -1.596395
 ---------------------------------------------------------------------
 Rotational constants (GHZ):           3.9522715           3.5942201           3.0874696

 **********************************************************************

            Population analysis using the SCF Density.

 **********************************************************************

 Orbital symmetries:
       Occupied  (A) (A) (A) (A) (A) (A) (A) (A) (A) (A) (A) (A)
                 (A) (A) (A) (A) (A) (A) (A) (A) (A) (A) (A) (A)
                 (A) (A)
       Virtual   (A) (A) (A) (A) (A) (A) (A) (A) (A) (A) (A) (A)
                 (A) (A) (A) (A) (A) (A) (A) (A) (A) (A) (A) (A)
                 (A) (A) (A) (A) (A) (A) (A) (A) (A) (A) (A) (A)
                 (A) (A) (A) (A) (A) (A) (A) (A) (A) (A) (A) (A)
                 (A) (A) (A) (A) (A) (A) (A) (A) (A)
 The electronic state is 1-A.
 Alpha  occ. eigenvalues --  -10.11529 -10.11430 -10.11287 -10.11192 -10.11109
 Alpha  occ. eigenvalues --  -10.10397 -10.10344  -0.89623  -0.74141  -0.74051
 Alpha  occ. eigenvalues --   -0.68445  -0.57670  -0.55748  -0.51830  -0.50525
 Alpha  occ. eigenvalues --   -0.47787  -0.43812  -0.39776  -0.39611  -0.36659
 Alpha  occ. eigenvalues --   -0.35010  -0.32943  -0.32500  -0.30750  -0.28133
 Alpha  occ. eigenvalues --   -0.23730
 Alpha virt. eigenvalues --    0.03003   0.11738   0.13267   0.15986   0.16448
 Alpha virt. eigenvalues --    0.18723   0.19481   0.19511   0.19976   0.20863
 Alpha virt. eigenvalues --    0.21171   0.22484   0.25331   0.26475   0.28375
 Alpha virt. eigenvalues --    0.28736   0.35855   0.39702   0.43504   0.69244
 Alpha virt. eigenvalues --    0.70791   0.72649   0.74686   0.74726   0.75103
 Alpha virt. eigenvalues --    0.76825   0.78362   0.79575   0.80498   0.83182
 Alpha virt. eigenvalues --    0.84794   0.86436   0.91405   0.96618   0.97686
 Alpha virt. eigenvalues --    1.01053   1.02697   1.03574   1.04338   1.05894
 Alpha virt. eigenvalues --    1.08221   1.08930   1.12796   1.12973   1.14221
 Alpha virt. eigenvalues --    1.20624   1.28816   1.36608   1.38814   1.46034
 Alpha virt. eigenvalues --    1.48871   1.95248   1.98398   2.07796   2.21026
 Alpha virt. eigenvalues --    2.47051   2.87057
          Condensed to atoms (all electrons):
               1          2          3          4          5          6
     1  C    5.713114   0.300490  -0.100545  -0.182798   0.400612  -0.032598
     2  C    0.300490   5.292011   0.519770  -0.100559  -0.029725   0.391976
     3  C   -0.100545   0.519770   5.292011   0.300505   0.003534  -0.037697
     4  C   -0.182798  -0.100559   0.300505   5.713118   0.003928   0.004700
     5  H    0.400612  -0.029725   0.003534   0.003928   0.516025  -0.001521
     6  H   -0.032598   0.391976  -0.037697   0.004700  -0.001521   0.499933
     7  H    0.004700  -0.037697   0.391976  -0.032598  -0.000053  -0.002395
     8  H    0.003928   0.003534  -0.029716   0.400613  -0.000033  -0.000053
     9  C    0.292062  -0.108065  -0.108069   0.292058  -0.023542   0.002622
    10  H   -0.031900   0.000414   0.000413  -0.031902  -0.000782  -0.000001
    11  H   -0.039613   0.004975   0.004975  -0.039609  -0.001361  -0.000034
    12  C    0.202310  -0.123399  -0.002188  -0.081373  -0.041417   0.001112
    13  H   -0.048331  -0.007521   0.001946   0.003224  -0.000066   0.000944
    14  H   -0.049770   0.006791   0.000100   0.003552  -0.004004  -0.000054
    15  C   -0.081374  -0.002197  -0.123424   0.202299   0.005252  -0.000405
    16  H    0.003553   0.000101   0.006790  -0.049758  -0.000081   0.000009
    17  H    0.003222   0.001949  -0.007528  -0.048341  -0.000058  -0.000015
               7          8          9         10         11         12
     1  C    0.004700   0.003928   0.292062  -0.031900  -0.039613   0.202310
     2  C   -0.037697   0.003534  -0.108065   0.000414   0.004975  -0.123399
     3  C    0.391976  -0.029716  -0.108069   0.000413   0.004975  -0.002188
     4  C   -0.032598   0.400613   0.292058  -0.031902  -0.039609  -0.081373
     5  H   -0.000053  -0.000033  -0.023542  -0.000782  -0.001361  -0.041417
     6  H   -0.002395  -0.000053   0.002622  -0.000001  -0.000034   0.001112
     7  H    0.499929  -0.001521   0.002622  -0.000001  -0.000034  -0.000405
     8  H   -0.001521   0.516020  -0.023550  -0.000782  -0.001361   0.005252
     9  C    0.002622  -0.023550   5.488323   0.371407   0.365497  -0.145953
    10  H   -0.000001  -0.000782   0.371407   0.513948  -0.024043   0.005543
    11  H   -0.000034  -0.001361   0.365497  -0.024043   0.551177   0.001143
    12  C   -0.000405   0.005252  -0.145953   0.005543   0.001143   5.493727
    13  H   -0.000015  -0.000058   0.007354  -0.000122  -0.000055   0.381212
    14  H    0.000009  -0.000081  -0.000246  -0.000083   0.001167   0.373090
    15  C    0.001112  -0.041415  -0.145911   0.005542   0.001142   0.301781
    16  H   -0.000054  -0.004005  -0.000242  -0.000083   0.001165  -0.037088
    17  H    0.000945  -0.000064   0.007354  -0.000122  -0.000055  -0.033859
              13         14         15         16         17
     1  C   -0.048331  -0.049770  -0.081374   0.003553   0.003222
     2  C   -0.007521   0.006791  -0.002197   0.000101   0.001949
     3  C    0.001946   0.000100  -0.123424   0.006790  -0.007528
     4  C    0.003224   0.003552   0.202299  -0.049758  -0.048341
     5  H   -0.000066  -0.004004   0.005252  -0.000081  -0.000058
     6  H    0.000944  -0.000054  -0.000405   0.000009  -0.000015
     7  H   -0.000015   0.000009   0.001112  -0.000054   0.000945
     8  H   -0.000058  -0.000081  -0.041415  -0.004005  -0.000064
     9  C    0.007354  -0.000246  -0.145911  -0.000242   0.007354
    10  H   -0.000122  -0.000083   0.005542  -0.000083  -0.000122
    11  H   -0.000055   0.001167   0.001142   0.001165  -0.000055
    12  C    0.381212   0.373090   0.301781  -0.037088  -0.033859
    13  H    0.536546  -0.028532  -0.033847   0.002213  -0.003901
    14  H   -0.028532   0.549947  -0.037099  -0.003745   0.002215
    15  C   -0.033847  -0.037099   5.493720   0.373096   0.381203
    16  H    0.002213  -0.003745   0.373096   0.549924  -0.028531
    17  H   -0.003901   0.002215   0.381203  -0.028531   0.536583
 Mulliken charges:
               1
     1  C   -0.357063
     2  C   -0.112849
     3  C   -0.112855
     4  C   -0.357060
     5  H    0.173292
     6  H    0.173478
     7  H    0.173480
     8  H    0.173293
     9  C   -0.273724
    10  H    0.192554
    11  H    0.174926
    12  C   -0.299487
    13  H    0.189008
    14  H    0.186742
    15  C   -0.299477
    16  H    0.186736
    17  H    0.189002
 Sum of Mulliken charges =   0.00000
 Mulliken charges with hydrogens summed into heavy atoms:
               1
     1  C   -0.183770
     2  C    0.060629
     3  C    0.060625
     4  C   -0.183767
     9  C    0.093756
    12  C    0.076264
    15  C    0.076262
 Electronic spatial extent (au):  <R**2>=            577.2381
 Charge=              0.0000 electrons
 Dipole moment (field-independent basis, Debye):
    X=              0.1933    Y=              0.0000    Z=             -0.0986  Tot=              0.2170
 Quadrupole moment (field-independent basis, Debye-Ang):
   XX=            -43.2657   YY=            -41.9409   ZZ=            -43.8943
   XY=             -0.0003   XZ=              1.3455   YZ=              0.0006
 Traceless Quadrupole moment (field-independent basis, Debye-Ang):
   XX=             -0.2321   YY=              1.0928   ZZ=             -0.8607
   XY=             -0.0003   XZ=              1.3455   YZ=              0.0006
 Octapole moment (field-independent basis, Debye-Ang**2):
  XXX=              0.8914  YYY=             -0.0014  ZZZ=              0.2548  XYY=             -2.2964
  XXY=              0.0014  XXZ=             -1.8582  XZZ=             -0.1354  YZZ=             -0.0003
  YYZ=             -0.5611  XYZ=             -0.0001
 Hexadecapole moment (field-independent basis, Debye-Ang**3):
 XXXX=           -303.1992 YYYY=           -260.4040 ZZZZ=           -207.1959 XXXY=             -0.0015
 XXXZ=             11.1074 YYYX=              0.0004 YYYZ=              0.0040 ZZZX=             -2.3388
 ZZZY=              0.0014 XXYY=            -91.2582 XXZZ=            -84.1564 YYZZ=            -78.3077
 XXYZ=              0.0007 YYXZ=              3.7576 ZZXY=             -0.0003
 N-N= 3.114394692573D+02 E-N=-1.250727662653D+03  KE= 2.694712198071D+02
 1\1\GINC-TACHAS\FOpt\RB3LYP\3-21G\C7H10\LEOS\20-Oct-2019\0\\# opt=modr
 edundant b3lyp/3-21g geom=connectivity\\Title Card Required\\0,1\C,-0.
 1172151836,-1.1290212193,0.2964507546\C,-1.1911075286,-0.6686799248,-0
 .7265026609\C,-1.1915318921,0.669166128,-0.7253540925\C,-0.1178842894,
 1.1283918004,0.2983539048\H,-0.2538882547,-2.1498120337,0.6596659703\H
 ,-1.7458136204,-1.3347136247,-1.3742873358\H,-1.7466399837,1.335969151
 5,-1.3720010623\H,-0.2551194405,2.148450776,0.6634042443\C,-0.32013256
 54,-0.0012990571,1.3774479785\H,-1.3152360799,-0.0019494073,1.82361649
 4\H,0.4642020233,-0.0017202454,2.1433637419\C,1.1341075335,-0.80806824
 09,-0.2431608374\H,1.304395447,-1.1926667714,-1.2549571836\H,1.9719346
 133,-1.1550702484,0.3777273239\C,1.1335685784,0.8091044265,-0.24194354
 57\H,1.9713312017,1.1558299871,0.3791716463\H,1.3032965613,1.195248953
 5,-1.2533144605\\Version=ES64L-G16RevB.01\State=1-A\HF=-271.2226772\RM
 SD=4.040e-09\RMSF=3.021e-02\Dipole=0.083802,0.0000297,-0.0162751\Quadr
 upole=-0.7392786,0.8124389,-0.0731603,-0.0013255,0.9717657,0.001232\PG
 =C01 [X(C7H10)]\\@


 YOU ARE IN A MAZE OF TWISTY LITTLE PASSAGES.
 Job cpu time:       0 days  0 hours  1 minutes 58.8 seconds.
 Elapsed time:       0 days  0 hours  0 minutes 59.7 seconds.
 File lengths (MBytes):  RWF=     10 Int=      0 D2E=      0 Chk=      2 Scr=      1
 Normal termination of Gaussian 16 at Sun Oct 20 19:30:57 2019.
