 Entering Gaussian System, Link 0=g16
 Input=/home/leos/jsmolpage/PDB/Ciclo/C1.5.com
 Output=/home/leos/jsmolpage/PDB/Ciclo/C1.5.log
 Initial command:
 /opt/g16/l1.exe "/tmp/Gau-8317.inp" -scrdir="/tmp/"
 Entering Link 1 = /opt/g16/l1.exe PID=      8320.
  
 Copyright (c) 1988-2017, Gaussian, Inc.  All Rights Reserved.
  
 This is part of the Gaussian(R) 16 program.  It is based on
 the Gaussian(R) 09 system (copyright 2009, Gaussian, Inc.),
 the Gaussian(R) 03 system (copyright 2003, Gaussian, Inc.),
 the Gaussian(R) 98 system (copyright 1998, Gaussian, Inc.),
 the Gaussian(R) 94 system (copyright 1995, Gaussian, Inc.),
 the Gaussian 92(TM) system (copyright 1992, Gaussian, Inc.),
 the Gaussian 90(TM) system (copyright 1990, Gaussian, Inc.),
 the Gaussian 88(TM) system (copyright 1988, Gaussian, Inc.),
 the Gaussian 86(TM) system (copyright 1986, Carnegie Mellon
 University), and the Gaussian 82(TM) system (copyright 1983,
 Carnegie Mellon University). Gaussian is a federally registered
 trademark of Gaussian, Inc.
  
 This software contains proprietary and confidential information,
 including trade secrets, belonging to Gaussian, Inc.
  
 This software is provided under written license and may be
 used, copied, transmitted, or stored only in accord with that
 written license.
  
 The following legend is applicable only to US Government
 contracts under FAR:
  
                    RESTRICTED RIGHTS LEGEND
  
 Use, reproduction and disclosure by the US Government is
 subject to restrictions as set forth in subparagraphs (a)
 and (c) of the Commercial Computer Software - Restricted
 Rights clause in FAR 52.227-19.
  
 Gaussian, Inc.
 340 Quinnipiac St., Bldg. 40, Wallingford CT 06492
  
  
 ---------------------------------------------------------------
 Warning -- This program may not be used in any manner that
 competes with the business of Gaussian, Inc. or will provide
 assistance to any competitor of Gaussian, Inc.  The licensee
 of this program is prohibited from giving any competitor of
 Gaussian, Inc. access to this program.  By using this program,
 the user acknowledges that Gaussian, Inc. is engaged in the
 business of creating and licensing software in the field of
 computational chemistry and represents and warrants to the
 licensee that it is not a competitor of Gaussian, Inc. and that
 it will not use this program in any manner prohibited above.
 ---------------------------------------------------------------
  

 Cite this work as:
 Gaussian 16, Revision B.01,
 M. J. Frisch, G. W. Trucks, H. B. Schlegel, G. E. Scuseria, 
 M. A. Robb, J. R. Cheeseman, G. Scalmani, V. Barone, 
 G. A. Petersson, H. Nakatsuji, X. Li, M. Caricato, A. V. Marenich, 
 J. Bloino, B. G. Janesko, R. Gomperts, B. Mennucci, H. P. Hratchian, 
 J. V. Ortiz, A. F. Izmaylov, J. L. Sonnenberg, D. Williams-Young, 
 F. Ding, F. Lipparini, F. Egidi, J. Goings, B. Peng, A. Petrone, 
 T. Henderson, D. Ranasinghe, V. G. Zakrzewski, J. Gao, N. Rega, 
 G. Zheng, W. Liang, M. Hada, M. Ehara, K. Toyota, R. Fukuda, 
 J. Hasegawa, M. Ishida, T. Nakajima, Y. Honda, O. Kitao, H. Nakai, 
 T. Vreven, K. Throssell, J. A. Montgomery, Jr., J. E. Peralta, 
 F. Ogliaro, M. J. Bearpark, J. J. Heyd, E. N. Brothers, K. N. Kudin, 
 V. N. Staroverov, T. A. Keith, R. Kobayashi, J. Normand, 
 K. Raghavachari, A. P. Rendell, J. C. Burant, S. S. Iyengar, 
 J. Tomasi, M. Cossi, J. M. Millam, M. Klene, C. Adamo, R. Cammi, 
 J. W. Ochterski, R. L. Martin, K. Morokuma, O. Farkas, 
 J. B. Foresman, and D. J. Fox, Gaussian, Inc., Wallingford CT, 2016.
 
 ******************************************
 Gaussian 16:  ES64L-G16RevB.01 20-Dec-2017
                20-Oct-2019 
 ******************************************
 %nprocshared=2
 Will use up to    2 processors via shared memory.
 %mem=6GB
 %chk=C3.chk
 ------------------------------------------------
 # opt=modredundant b3lyp/3-21g geom=connectivity
 ------------------------------------------------
 1/18=120,19=15,26=3,38=1,57=2/1,3;
 2/9=110,12=2,17=6,18=5,40=1/2;
 3/5=5,11=2,25=1,30=1,71=1,74=-5/1,2,3;
 4//1;
 5/5=2,38=5/2;
 6/7=2,8=2,9=2,10=2,28=1/1;
 7//1,2,3,16;
 1/18=20,19=15,26=3/3(2);
 2/9=110/2;
 99//99;
 2/9=110/2;
 3/5=5,11=2,25=1,30=1,71=1,74=-5/1,2,3;
 4/5=5,16=3,69=1/1;
 5/5=2,38=5/2;
 7//1,2,3,16;
 1/18=20,19=15,26=3/3(-5);
 2/9=110/2;
 6/7=2,8=2,9=2,10=2,19=2,28=1/1;
 99/9=1/99;
 -------------------
 Title Card Required
 -------------------
 Symbolic Z-matrix:
 Charge =  0 Multiplicity = 1
 C                    -0.32533  -1.15733   0.36566 
 C                    -1.20765  -0.68248  -0.71237 
 C                    -1.20798   0.6836   -0.71082 
 C                    -0.3258    1.15636   0.36828 
 H                    -0.33726  -2.19176   0.6891 
 H                    -1.66137  -1.32767  -1.45298 
 H                    -1.66194   1.33026  -1.45001 
 H                    -0.33807   2.18998   0.69428 
 C                    -0.31758  -0.00165   1.37616 
 H                    -1.23498  -0.00243   1.97647 
 H                     0.55757  -0.00218   2.03378 
 C                     1.02977  -0.84126  -0.19454 
 H                     1.46538  -1.23269  -1.3486 
 H                     2.14182  -1.21287   0.33123 
 C                     1.02888   0.84216  -0.19398 
 H                     2.14253   1.21624   0.32941 
 H                     1.46093   1.23301  -1.34825 
 
 Add virtual bond connecting atoms C12        and C1         Dist= 2.83D+00.
 Add virtual bond connecting atoms C15        and C4         Dist= 2.83D+00.
 The following ModRedundant input section has been read:
 B       4      15 F                                                           
 B       1      12 F                                                           
 

 GradGradGradGradGradGradGradGradGradGradGradGradGradGradGradGradGradGrad
 Berny optimization.
 Initialization pass.
                           ----------------------------
                           !    Initial Parameters    !
                           ! (Angstroms and Degrees)  !
 --------------------------                            --------------------------
 ! Name  Definition              Value          Derivative Info.                !
 --------------------------------------------------------------------------------
 ! R1    R(1,2)                  1.4718         estimate D2E/DX2                !
 ! R2    R(1,5)                  1.0839         estimate D2E/DX2                !
 ! R3    R(1,9)                  1.5352         estimate D2E/DX2                !
 ! R4    R(1,12)                 1.5            Frozen                          !
 ! R5    R(2,3)                  1.3661         estimate D2E/DX2                !
 ! R6    R(2,6)                  1.082          estimate D2E/DX2                !
 ! R7    R(3,4)                  1.4718         estimate D2E/DX2                !
 ! R8    R(3,7)                  1.082          estimate D2E/DX2                !
 ! R9    R(4,8)                  1.0839         estimate D2E/DX2                !
 ! R10   R(4,9)                  1.5352         estimate D2E/DX2                !
 ! R11   R(4,15)                 1.5            Frozen                          !
 ! R12   R(9,10)                 1.0963         estimate D2E/DX2                !
 ! R13   R(9,11)                 1.0947         estimate D2E/DX2                !
 ! R14   R(12,13)                1.2942         estimate D2E/DX2                !
 ! R15   R(12,14)                1.285          estimate D2E/DX2                !
 ! R16   R(12,15)                1.6834         estimate D2E/DX2                !
 ! R17   R(15,16)                1.2861         estimate D2E/DX2                !
 ! R18   R(15,17)                1.293          estimate D2E/DX2                !
 ! A1    A(2,1,5)              121.3246         estimate D2E/DX2                !
 ! A2    A(2,1,9)              104.0207         estimate D2E/DX2                !
 ! A3    A(2,1,12)             101.5397         estimate D2E/DX2                !
 ! A4    A(5,1,9)              121.4728         estimate D2E/DX2                !
 ! A5    A(5,1,12)             108.8138         estimate D2E/DX2                !
 ! A6    A(9,1,12)              94.7405         estimate D2E/DX2                !
 ! A7    A(1,2,3)              108.781          estimate D2E/DX2                !
 ! A8    A(1,2,6)              124.0824         estimate D2E/DX2                !
 ! A9    A(3,2,6)              126.6547         estimate D2E/DX2                !
 ! A10   A(2,3,4)              108.7778         estimate D2E/DX2                !
 ! A11   A(2,3,7)              126.6555         estimate D2E/DX2                !
 ! A12   A(4,3,7)              124.0837         estimate D2E/DX2                !
 ! A13   A(3,4,8)              121.3356         estimate D2E/DX2                !
 ! A14   A(3,4,9)              104.0198         estimate D2E/DX2                !
 ! A15   A(3,4,15)             101.4908         estimate D2E/DX2                !
 ! A16   A(8,4,9)              121.4615         estimate D2E/DX2                !
 ! A17   A(8,4,15)             108.8274         estimate D2E/DX2                !
 ! A18   A(9,4,15)              94.7756         estimate D2E/DX2                !
 ! A19   A(1,9,4)               97.7978         estimate D2E/DX2                !
 ! A20   A(1,9,10)             110.8335         estimate D2E/DX2                !
 ! A21   A(1,9,11)             113.5212         estimate D2E/DX2                !
 ! A22   A(4,9,10)             110.8259         estimate D2E/DX2                !
 ! A23   A(4,9,11)             113.5179         estimate D2E/DX2                !
 ! A24   A(10,9,11)            109.8784         estimate D2E/DX2                !
 ! A25   A(1,12,13)            124.9868         estimate D2E/DX2                !
 ! A26   A(1,12,14)            124.6159         estimate D2E/DX2                !
 ! A27   A(1,12,15)            102.1289         estimate D2E/DX2                !
 ! A28   A(13,12,14)            89.2039         estimate D2E/DX2                !
 ! A29   A(13,12,15)           107.6338         estimate D2E/DX2                !
 ! A30   A(14,12,15)           106.8286         estimate D2E/DX2                !
 ! A31   A(4,15,12)            102.1263         estimate D2E/DX2                !
 ! A32   A(4,15,16)            124.6488         estimate D2E/DX2                !
 ! A33   A(4,15,17)            124.9661         estimate D2E/DX2                !
 ! A34   A(12,15,16)           106.8902         estimate D2E/DX2                !
 ! A35   A(12,15,17)           107.5666         estimate D2E/DX2                !
 ! A36   A(16,15,17)            89.1996         estimate D2E/DX2                !
 ! D1    D(5,1,2,3)            166.5759         estimate D2E/DX2                !
 ! D2    D(5,1,2,6)            -20.9339         estimate D2E/DX2                !
 ! D3    D(9,1,2,3)             25.1388         estimate D2E/DX2                !
 ! D4    D(9,1,2,6)           -162.371          estimate D2E/DX2                !
 ! D5    D(12,1,2,3)           -72.7888         estimate D2E/DX2                !
 ! D6    D(12,1,2,6)            99.7014         estimate D2E/DX2                !
 ! D7    D(2,1,9,4)            -37.7231         estimate D2E/DX2                !
 ! D8    D(2,1,9,10)            78.1298         estimate D2E/DX2                !
 ! D9    D(2,1,9,11)          -157.6478         estimate D2E/DX2                !
 ! D10   D(5,1,9,4)           -179.0879         estimate D2E/DX2                !
 ! D11   D(5,1,9,10)           -63.235          estimate D2E/DX2                !
 ! D12   D(5,1,9,11)            60.9874         estimate D2E/DX2                !
 ! D13   D(12,1,9,4)            65.433          estimate D2E/DX2                !
 ! D14   D(12,1,9,10)         -178.7141         estimate D2E/DX2                !
 ! D15   D(12,1,9,11)          -54.4917         estimate D2E/DX2                !
 ! D16   D(2,1,12,13)          -54.2922         estimate D2E/DX2                !
 ! D17   D(2,1,12,14)         -171.8398         estimate D2E/DX2                !
 ! D18   D(2,1,12,15)           67.6188         estimate D2E/DX2                !
 ! D19   D(5,1,12,13)           74.7669         estimate D2E/DX2                !
 ! D20   D(5,1,12,14)          -42.7807         estimate D2E/DX2                !
 ! D21   D(5,1,12,15)         -163.322          estimate D2E/DX2                !
 ! D22   D(9,1,12,13)         -159.6623         estimate D2E/DX2                !
 ! D23   D(9,1,12,14)           82.7902         estimate D2E/DX2                !
 ! D24   D(9,1,12,15)          -37.7512         estimate D2E/DX2                !
 ! D25   D(1,2,3,4)              0.0029         estimate D2E/DX2                !
 ! D26   D(1,2,3,7)            172.2397         estimate D2E/DX2                !
 ! D27   D(6,2,3,4)           -172.2426         estimate D2E/DX2                !
 ! D28   D(6,2,3,7)             -0.0057         estimate D2E/DX2                !
 ! D29   D(2,3,4,8)           -166.5729         estimate D2E/DX2                !
 ! D30   D(2,3,4,9)            -25.1429         estimate D2E/DX2                !
 ! D31   D(2,3,4,15)            72.8079         estimate D2E/DX2                !
 ! D32   D(7,3,4,8)             20.9453         estimate D2E/DX2                !
 ! D33   D(7,3,4,9)            162.3753         estimate D2E/DX2                !
 ! D34   D(7,3,4,15)           -99.6738         estimate D2E/DX2                !
 ! D35   D(3,4,9,1)             37.7247         estimate D2E/DX2                !
 ! D36   D(3,4,9,10)           -78.1343         estimate D2E/DX2                !
 ! D37   D(3,4,9,11)           157.6518         estimate D2E/DX2                !
 ! D38   D(8,4,9,1)            179.0933         estimate D2E/DX2                !
 ! D39   D(8,4,9,10)            63.2343         estimate D2E/DX2                !
 ! D40   D(8,4,9,11)           -60.9796         estimate D2E/DX2                !
 ! D41   D(15,4,9,1)           -65.3901         estimate D2E/DX2                !
 ! D42   D(15,4,9,10)          178.7509         estimate D2E/DX2                !
 ! D43   D(15,4,9,11)           54.537          estimate D2E/DX2                !
 ! D44   D(3,4,15,12)          -67.7364         estimate D2E/DX2                !
 ! D45   D(3,4,15,16)          171.618          estimate D2E/DX2                !
 ! D46   D(3,4,15,17)           54.0636         estimate D2E/DX2                !
 ! D47   D(8,4,15,12)          163.2136         estimate D2E/DX2                !
 ! D48   D(8,4,15,16)           42.568          estimate D2E/DX2                !
 ! D49   D(8,4,15,17)          -74.9864         estimate D2E/DX2                !
 ! D50   D(9,4,15,12)           37.6338         estimate D2E/DX2                !
 ! D51   D(9,4,15,16)          -83.0117         estimate D2E/DX2                !
 ! D52   D(9,4,15,17)          159.4338         estimate D2E/DX2                !
 ! D53   D(1,12,15,4)            0.0779         estimate D2E/DX2                !
 ! D54   D(1,12,15,16)         132.3751         estimate D2E/DX2                !
 ! D55   D(1,12,15,17)        -132.9897         estimate D2E/DX2                !
 ! D56   D(13,12,15,4)         133.2121         estimate D2E/DX2                !
 ! D57   D(13,12,15,16)        -94.4908         estimate D2E/DX2                !
 ! D58   D(13,12,15,17)          0.1444         estimate D2E/DX2                !
 ! D59   D(14,12,15,4)        -132.1469         estimate D2E/DX2                !
 ! D60   D(14,12,15,16)          0.1502         estimate D2E/DX2                !
 ! D61   D(14,12,15,17)         94.7854         estimate D2E/DX2                !
 --------------------------------------------------------------------------------
 Trust Radius=3.00D-01 FncErr=1.00D-07 GrdErr=1.00D-06 EigMax=2.50D+02 EigMin=1.00D-04
 Number of steps in this run=    102 maximum allowed number of steps=    102.
 GradGradGradGradGradGradGradGradGradGradGradGradGradGradGradGradGradGrad

                          Input orientation:                          
 ---------------------------------------------------------------------
 Center     Atomic      Atomic             Coordinates (Angstroms)
 Number     Number       Type             X           Y           Z
 ---------------------------------------------------------------------
      1          6           0       -0.325325   -1.157333    0.365664
      2          6           0       -1.207654   -0.682481   -0.712367
      3          6           0       -1.207984    0.683595   -0.710819
      4          6           0       -0.325795    1.156361    0.368284
      5          1           0       -0.337263   -2.191759    0.689097
      6          1           0       -1.661374   -1.327673   -1.452977
      7          1           0       -1.661939    1.330258   -1.450006
      8          1           0       -0.338067    2.189975    0.694278
      9          6           0       -0.317579   -0.001646    1.376164
     10          1           0       -1.234975   -0.002426    1.976468
     11          1           0        0.557570   -0.002180    2.033785
     12          6           0        1.029767   -0.841264   -0.194536
     13          1           0        1.465375   -1.232690   -1.348600
     14          1           0        2.141818   -1.212868    0.331230
     15          6           0        1.028880    0.842163   -0.193975
     16          1           0        2.142530    1.216240    0.329413
     17          1           0        1.460933    1.233013   -1.348252
 ---------------------------------------------------------------------
                    Distance matrix (angstroms):
                    1          2          3          4          5
     1  C    0.000000
     2  C    1.471781   0.000000
     3  C    2.308012   1.366077   0.000000
     4  C    2.313696   2.307991   1.471811   0.000000
     5  H    1.083877   2.235979   3.314450   3.363474   0.000000
     6  H    2.263073   1.081960   2.191246   3.357259   2.662404
     7  H    3.357276   2.191256   1.081964   2.263117   4.328410
     8  H    3.363424   3.314489   2.236120   1.083873   4.381737
     9  C    1.535182   2.370175   2.370206   1.535210   2.295440
    10  H    2.180817   2.773636   2.773601   2.180746   2.693769
    11  H    2.212806   3.334693   3.334714   2.212791   2.720876
    12  C    1.500000   2.302046   2.756678   2.478875   2.115046
    13  H    2.480118   2.802250   3.350487   3.444350   2.884706
    14  H    2.468008   3.548150   3.987933   3.421072   2.689264
    15  C    2.478921   2.755967   2.301267   1.500000   3.442505
    16  H    3.424248   3.989258   3.548484   2.469357   4.230036
    17  H    3.441218   3.345867   2.798446   2.478864   4.371883
                    6          7          8          9         10
     6  H    0.000000
     7  H    2.657933   0.000000
     8  H    4.328475   2.662650   0.000000
     9  C    3.401201   3.401251   2.295341   0.000000
    10  H    3.701242   3.701225   2.693525   1.096349   0.000000
    11  H    4.340294   4.340324   2.720660   1.094692   1.793461
    12  C    3.010400   3.679265   3.442291   2.233249   3.247455
    13  H    3.129932   4.044636   4.374973   3.481197   4.456626
    14  H    4.202481   4.910077   4.226225   2.933868   3.946481
    15  C    3.678415   3.009378   2.115215   2.233898   3.247952
    16  H    4.911018   4.201585   2.689730   2.937868   3.950377
    17  H    4.039416   3.126042   2.885153   3.479933   4.455109
                   11         12         13         14         15
    11  H    0.000000
    12  C    2.427437   0.000000
    13  H    3.711980   1.294153   0.000000
    14  H    2.621889   1.284981   1.811021   0.000000
    15  C    2.428572   1.683427   2.414270   2.395334   0.000000
    16  H    2.627076   2.397099   3.044918   2.429109   1.286113
    17  H    3.712134   2.412382   2.465707   3.044109   1.292977
                   16         17
    16  H    0.000000
    17  H    1.810916   0.000000
 Stoichiometry    C7H10
 Framework group  C1[X(C7H10)]
 Deg. of freedom    45
 Full point group                 C1      NOp   1
 Largest Abelian subgroup         C1      NOp   1
 Largest concise Abelian subgroup C1      NOp   1
                         Standard orientation:                         
 ---------------------------------------------------------------------
 Center     Atomic      Atomic             Coordinates (Angstroms)
 Number     Number       Type             X           Y           Z
 ---------------------------------------------------------------------
      1          6           0       -0.129058   -1.157240    0.369163
      2          6           0       -1.259653   -0.684470   -0.445934
      3          6           0       -1.261536    0.681605   -0.445123
      4          6           0       -0.132161    1.156453    0.370511
      5          1           0       -0.055923   -2.191384    0.685369
      6          1           0       -1.887666   -1.330903   -1.044568
      7          1           0       -1.891265    1.327027   -1.043051
      8          1           0       -0.061660    2.190349    0.688112
      9          6           0        0.136666   -0.000621    1.343024
     10          1           0       -0.595468   -0.001992    2.159087
     11          1           0        1.151513    0.000534    1.753434
     12          6           0        1.035909   -0.839999   -0.520898
     13          1           0        1.160600   -1.231939   -1.747954
     14          1           0        2.246307   -1.209740   -0.298629
     15          6           0        1.032778    0.843425   -0.521077
     16          1           0        2.243040    1.219364   -0.301937
     17          1           0        1.152856    1.233756   -1.747866
 ---------------------------------------------------------------------
 Rotational constants (GHZ):           3.7983770           3.6213974           3.0502339
 Standard basis: 3-21G (6D, 7F)
 There are    83 symmetry adapted cartesian basis functions of A   symmetry.
 There are    83 symmetry adapted basis functions of A   symmetry.
    83 basis functions,   135 primitive gaussians,    83 cartesian basis functions
    26 alpha electrons       26 beta electrons
       nuclear repulsion energy       307.5587656106 Hartrees.
 NAtoms=   17 NActive=   17 NUniq=   17 SFac= 1.00D+00 NAtFMM=   60 NAOKFM=F Big=F
 Integral buffers will be    131072 words long.
 Raffenetti 2 integral format.
 Two-electron integral symmetry is turned on.
 One-electron integrals computed using PRISM.
 NBasis=    83 RedAO= T EigKep=  4.08D-03  NBF=    83
 NBsUse=    83 1.00D-06 EigRej= -1.00D+00 NBFU=    83
 ExpMin= 1.83D-01 ExpMax= 1.72D+02 ExpMxC= 1.72D+02 IAcc=3 IRadAn=         5 AccDes= 0.00D+00
 Harris functional with IExCor=  402 and IRadAn=       5 diagonalized for initial guess.
 HarFok:  IExCor=  402 AccDes= 0.00D+00 IRadAn=         5 IDoV= 1 UseB2=F ITyADJ=14
 ICtDFT=  3500011 ScaDFX=  1.000000  1.000000  1.000000  1.000000
 FoFCou: FMM=F IPFlag=           0 FMFlag=      100000 FMFlg1=           0
         NFxFlg=           0 DoJE=T BraDBF=F KetDBF=T FulRan=T
         wScrn=  0.000000 ICntrl=       500 IOpCl=  0 I1Cent=   200000004 NGrid=           0
         NMat0=    1 NMatS0=      1 NMatT0=    0 NMatD0=    1 NMtDS0=    0 NMtDT0=    0
 Petite list used in FoFCou.
 Keep R1 ints in memory in canonical form, NReq=7891700.
 Requested convergence on RMS density matrix=1.00D-08 within 128 cycles.
 Requested convergence on MAX density matrix=1.00D-06.
 Requested convergence on             energy=1.00D-06.
 No special actions if energy rises.
 Integral accuracy reduced to 1.0D-05 until final iterations.
 Initial convergence to 1.0D-05 achieved.  Increase integral accuracy.
 SCF Done:  E(RB3LYP) =  -271.136983331     A.U. after   13 cycles
            NFock= 13  Conv=0.41D-08     -V/T= 2.0096

 **********************************************************************

            Population analysis using the SCF Density.

 **********************************************************************

 Orbital symmetries:
       Occupied  (A) (A) (A) (A) (A) (A) (A) (A) (A) (A) (A) (A)
                 (A) (A) (A) (A) (A) (A) (A) (A) (A) (A) (A) (A)
                 (A) (A)
       Virtual   (A) (A) (A) (A) (A) (A) (A) (A) (A) (A) (A) (A)
                 (A) (A) (A) (A) (A) (A) (A) (A) (A) (A) (A) (A)
                 (A) (A) (A) (A) (A) (A) (A) (A) (A) (A) (A) (A)
                 (A) (A) (A) (A) (A) (A) (A) (A) (A) (A) (A) (A)
                 (A) (A) (A) (A) (A) (A) (A) (A) (A)
 The electronic state is 1-A.
 Alpha  occ. eigenvalues --  -10.14773 -10.14732 -10.12999 -10.12901 -10.12122
 Alpha  occ. eigenvalues --  -10.12090 -10.11966  -0.90594  -0.74471  -0.73105
 Alpha  occ. eigenvalues --   -0.67442  -0.56358  -0.56353  -0.52675  -0.50534
 Alpha  occ. eigenvalues --   -0.47084  -0.40808  -0.39961  -0.39285  -0.36328
 Alpha  occ. eigenvalues --   -0.35563  -0.34526  -0.31122  -0.30100  -0.26147
 Alpha  occ. eigenvalues --   -0.22892
 Alpha virt. eigenvalues --    0.01702   0.08673   0.09264   0.13981   0.14543
 Alpha virt. eigenvalues --    0.16294   0.16952   0.17587   0.18270   0.19657
 Alpha virt. eigenvalues --    0.20489   0.20779   0.21971   0.25280   0.25326
 Alpha virt. eigenvalues --    0.29345   0.32279   0.39659   0.41853   0.69778
 Alpha virt. eigenvalues --    0.71011   0.72413   0.74215   0.75018   0.75502
 Alpha virt. eigenvalues --    0.75960   0.77132   0.81387   0.81918   0.83033
 Alpha virt. eigenvalues --    0.84527   0.89219   0.90706   0.92630   0.94608
 Alpha virt. eigenvalues --    0.95209   0.98028   1.00375   1.00641   1.04114
 Alpha virt. eigenvalues --    1.06286   1.06327   1.10925   1.13396   1.16642
 Alpha virt. eigenvalues --    1.21093   1.28913   1.35865   1.36461   1.47263
 Alpha virt. eigenvalues --    1.47682   1.88208   1.98575   1.99017   2.22268
 Alpha virt. eigenvalues --    2.39463   2.73638
          Condensed to atoms (all electrons):
               1          2          3          4          5          6
     1  C    5.740168   0.256981  -0.092221  -0.152076   0.401215  -0.037753
     2  C    0.256981   5.294344   0.527751  -0.092275  -0.024851   0.394618
     3  C   -0.092221   0.527751   5.294605   0.257031   0.003312  -0.033532
     4  C   -0.152076  -0.092275   0.257031   5.740197   0.003029   0.004436
     5  H    0.401215  -0.024851   0.003312   0.003029   0.486119  -0.001660
     6  H   -0.037753   0.394618  -0.033532   0.004436  -0.001660   0.488507
     7  H    0.004436  -0.033531   0.394607  -0.037751  -0.000042  -0.002166
     8  H    0.003029   0.003310  -0.024810   0.401227  -0.000007  -0.000042
     9  C    0.270893  -0.105350  -0.105386   0.270845  -0.017432   0.003254
    10  H   -0.038094   0.002592   0.002582  -0.038108  -0.001914  -0.000063
    11  H   -0.040806   0.004934   0.004932  -0.040783  -0.001106  -0.000041
    12  C    0.231395  -0.144410  -0.009236  -0.079540  -0.042386   0.000744
    13  H   -0.023428  -0.004927   0.000292   0.001879   0.000147   0.000730
    14  H   -0.020777   0.004366   0.000442   0.001953  -0.001643  -0.000035
    15  C   -0.079566  -0.009310  -0.144724   0.231368   0.003446  -0.000356
    16  H    0.001953   0.000441   0.004362  -0.020691  -0.000026   0.000005
    17  H    0.001878   0.000291  -0.004958  -0.023531  -0.000028  -0.000000
               7          8          9         10         11         12
     1  C    0.004436   0.003029   0.270893  -0.038094  -0.040806   0.231395
     2  C   -0.033531   0.003310  -0.105350   0.002592   0.004934  -0.144410
     3  C    0.394607  -0.024810  -0.105386   0.002582   0.004932  -0.009236
     4  C   -0.037751   0.401227   0.270845  -0.038108  -0.040783  -0.079540
     5  H   -0.000042  -0.000007  -0.017432  -0.001914  -0.001106  -0.042386
     6  H   -0.002166  -0.000042   0.003254  -0.000063  -0.000041   0.000744
     7  H    0.488496  -0.001661   0.003255  -0.000063  -0.000041  -0.000356
     8  H   -0.001661   0.486073  -0.017472  -0.001914  -0.001106   0.003443
     9  C    0.003255  -0.017472   5.533546   0.363269   0.381652  -0.166585
    10  H   -0.000063  -0.001914   0.363269   0.527441  -0.023041   0.007632
    11  H   -0.000041  -0.001106   0.381652  -0.023041   0.515235  -0.004688
    12  C   -0.000356   0.003443  -0.166585   0.007632  -0.004688   5.461985
    13  H   -0.000000  -0.000027   0.004907  -0.000081   0.000096   0.346950
    14  H    0.000005  -0.000026  -0.001958  -0.000042   0.000959   0.338440
    15  C    0.000743  -0.042352  -0.166184   0.007624  -0.004693   0.310102
    16  H   -0.000035  -0.001641  -0.001917  -0.000042   0.000945  -0.030825
    17  H    0.000737   0.000148   0.004917  -0.000081   0.000096  -0.028224
              13         14         15         16         17
     1  C   -0.023428  -0.020777  -0.079566   0.001953   0.001878
     2  C   -0.004927   0.004366  -0.009310   0.000441   0.000291
     3  C    0.000292   0.000442  -0.144724   0.004362  -0.004958
     4  C    0.001879   0.001953   0.231368  -0.020691  -0.023531
     5  H    0.000147  -0.001643   0.003446  -0.000026  -0.000028
     6  H    0.000730  -0.000035  -0.000356   0.000005  -0.000000
     7  H   -0.000000   0.000005   0.000743  -0.000035   0.000737
     8  H   -0.000027  -0.000026  -0.042352  -0.001641   0.000148
     9  C    0.004907  -0.001958  -0.166184  -0.001917   0.004917
    10  H   -0.000081  -0.000042   0.007624  -0.000042  -0.000081
    11  H    0.000096   0.000959  -0.004693   0.000945   0.000096
    12  C    0.346950   0.338440   0.310102  -0.030825  -0.028224
    13  H    0.629991  -0.047494  -0.028072   0.002402  -0.004565
    14  H   -0.047494   0.632084  -0.030980  -0.003213   0.002407
    15  C   -0.028072  -0.030980   5.462083   0.338283   0.347095
    16  H    0.002402  -0.003213   0.338283   0.632536  -0.047495
    17  H   -0.004565   0.002407   0.347095  -0.047495   0.629463
 Mulliken charges:
               1
     1  C   -0.427228
     2  C   -0.074973
     3  C   -0.075048
     4  C   -0.427210
     5  H    0.193825
     6  H    0.183355
     7  H    0.183368
     8  H    0.193828
     9  C   -0.254253
    10  H    0.192305
    11  H    0.207455
    12  C   -0.194441
    13  H    0.121201
    14  H    0.125513
    15  C   -0.194505
    16  H    0.124958
    17  H    0.121851
 Sum of Mulliken charges =  -0.00000
 Mulliken charges with hydrogens summed into heavy atoms:
               1
     1  C   -0.233403
     2  C    0.108381
     3  C    0.108320
     4  C   -0.233382
     9  C    0.145507
    12  C    0.052272
    15  C    0.052304
 Electronic spatial extent (au):  <R**2>=            591.4035
 Charge=              0.0000 electrons
 Dipole moment (field-independent basis, Debye):
    X=             -0.0276    Y=              0.0005    Z=              0.1439  Tot=              0.1465
 Quadrupole moment (field-independent basis, Debye-Ang):
   XX=            -44.4205   YY=            -42.1274   ZZ=            -44.4381
   XY=             -0.0052   XZ=              1.3976   YZ=              0.0013
 Traceless Quadrupole moment (field-independent basis, Debye-Ang):
   XX=             -0.7585   YY=              1.5346   ZZ=             -0.7761
   XY=             -0.0052   XZ=              1.3976   YZ=              0.0013
 Octapole moment (field-independent basis, Debye-Ang**2):
  XXX=              0.4514  YYY=             -0.0155  ZZZ=              2.2503  XYY=             -3.6627
  XXY=              0.0097  XXZ=             -3.7872  XZZ=             -0.8612  YZZ=              0.0037
  YYZ=              0.6267  XYZ=             -0.0093
 Hexadecapole moment (field-independent basis, Debye-Ang**3):
 XXXX=           -313.4001 YYYY=           -272.1999 ZZZZ=           -217.2941 XXXY=             -0.0302
 XXXZ=              9.6304 YYYX=             -0.0145 YYYZ=              0.0265 ZZZX=              0.7677
 ZZZY=             -0.0029 XXYY=            -96.5595 XXZZ=            -83.4393 YYZZ=            -82.6340
 XXYZ=             -0.0055 YYXZ=              4.5274 ZZXY=              0.0072
 N-N= 3.075587656106D+02 E-N=-1.241893477827D+03  KE= 2.685559037095D+02
 Calling FoFJK, ICntrl=      2127 FMM=F ISym2X=0 I1Cent= 0 IOpClX= 0 NMat=1 NMatS=1 NMatT=0.
 ***** Axes restored to original set *****
 -------------------------------------------------------------------
 Center     Atomic                   Forces (Hartrees/Bohr)
 Number     Number              X              Y              Z
 -------------------------------------------------------------------
      1        6           0.033903604   -0.017108119    0.009236286
      2        6          -0.032365392    0.030746388   -0.016894359
      3        6          -0.032399889   -0.030734954   -0.016931014
      4        6           0.033840462    0.017081084    0.009220082
      5        1          -0.014152692   -0.000663338    0.007577123
      6        1           0.000456541    0.001266959   -0.000068101
      7        1           0.000456902   -0.001264723   -0.000066705
      8        1          -0.014146443    0.000643501    0.007553218
      9        6          -0.044651923   -0.000016726    0.043739719
     10        1          -0.001119364   -0.000004522    0.002944671
     11        1          -0.001897050    0.000000825   -0.002024849
     12        6           0.150141158    0.004632271   -0.070960234
     13        1          -0.045508485    0.017984291    0.053960815
     14        1          -0.068611193    0.017220242   -0.005082220
     15        6           0.150090939   -0.004444501   -0.071190442
     16        1          -0.068717016   -0.017481102   -0.004964395
     17        1          -0.045320159   -0.017857575    0.053950405
 -------------------------------------------------------------------
 Cartesian Forces:  Max     0.150141158 RMS     0.041524571

 GradGradGradGradGradGradGradGradGradGradGradGradGradGradGradGradGradGrad
 Berny optimization.
 FormGI is forming the generalized inverse of G from B-inverse, IUseBI=4.
 Internal  Forces:  Max     0.068876601 RMS     0.016353202
 Search for a local minimum.
 Step number   1 out of a maximum of  102
 All quantities printed in internal units (Hartrees-Bohrs-Radians)
 Mixed Optimization -- RFO/linear search
 Second derivative matrix not updated -- first step.
 ITU=  0
     Eigenvalues ---    0.00696   0.01452   0.01546   0.01817   0.01994
     Eigenvalues ---    0.02231   0.03125   0.03653   0.04184   0.04268
     Eigenvalues ---    0.04506   0.04747   0.05416   0.05684   0.05932
     Eigenvalues ---    0.06568   0.06827   0.07604   0.07867   0.07874
     Eigenvalues ---    0.09528   0.11040   0.12899   0.13221   0.15621
     Eigenvalues ---    0.15822   0.17300   0.17986   0.18896   0.18956
     Eigenvalues ---    0.19314   0.19373   0.24927   0.25036   0.31048
     Eigenvalues ---    0.34089   0.34276   0.34674   0.35530   0.35530
     Eigenvalues ---    0.35758   0.35759   0.464811000.000001000.00000
     Eigenvalues --- 1000.000001000.000001000.000001000.000001000.00000
     Eigenvalues --- 1000.000001000.000001000.000001000.000001000.00000
     Eigenvalues --- 1000.000001000.000001000.000001000.000001000.00000
     Eigenvalues --- 1000.000001000.000001000.000001000.000001000.00000
     Eigenvalues --- 1000.000001000.000001000.000001000.000001000.00000
     Eigenvalues --- 1000.000001000.000001000.000001000.000001000.00000
     Eigenvalues --- 1000.000001000.000001000.000001000.000001000.00000
     Eigenvalues --- 1000.000001000.000001000.000001000.000001000.00000
     Eigenvalues --- 1000.000001000.000001000.000001000.000001000.00000
     Eigenvalues --- 1000.000001000.000001000.000001000.000001000.00000
     Eigenvalues --- 1000.000001000.000001000.000001000.000001000.00000
     Eigenvalues --- 1000.000001000.000001000.000001000.000001000.00000
     Eigenvalues --- 1000.000001000.000001000.000001000.000001000.00000
     Eigenvalues --- 1000.000001000.000001000.000001000.000001000.00000
 RFO step:  Lambda=-9.98168492D-02 EMin= 6.96245407D-03
 Linear search not attempted -- first point.
 Maximum step size (   0.300) exceeded in Quadratic search.
    -- Step size scaled by   0.550
 Iteration  1 RMS(Cart)=  0.02439154 RMS(Int)=  0.00093654
 Iteration  2 RMS(Cart)=  0.00093781 RMS(Int)=  0.00023458
 Iteration  3 RMS(Cart)=  0.00000091 RMS(Int)=  0.00023458
 Iteration  1 RMS(Cart)=  0.00001557 RMS(Int)=  0.00000139
 Iteration  2 RMS(Cart)=  0.00000024 RMS(Int)=  0.00000140
 Variable       Old X    -DE/DX   Delta X   Delta X   Delta X     New X
                                 (Linear)    (Quad)   (Total)
    R1        2.78126   0.03332   0.00000   0.03970   0.03972   2.82099
    R2        2.04823   0.00305   0.00000   0.00369   0.00369   2.05192
    R3        2.90107   0.01305   0.00000   0.01926   0.01952   2.92059
    R4        2.83459   0.04384   0.00000   0.00000  -0.00000   2.83459
    R5        2.58151  -0.02661   0.00000  -0.02505  -0.02498   2.55653
    R6        2.04461  -0.00090   0.00000  -0.00108  -0.00108   2.04353
    R7        2.78132   0.03331   0.00000   0.03969   0.03971   2.82103
    R8        2.04462  -0.00090   0.00000  -0.00109  -0.00109   2.04353
    R9        2.04822   0.00305   0.00000   0.00368   0.00368   2.05190
   R10        2.90113   0.01304   0.00000   0.01925   0.01950   2.92063
   R11        2.83459   0.04387   0.00000   0.00000  -0.00000   2.83459
   R12        2.07180   0.00255   0.00000   0.00318   0.00318   2.07498
   R13        2.06867  -0.00273   0.00000  -0.00340  -0.00340   2.06527
   R14        2.44559  -0.06888   0.00000  -0.13120  -0.13120   2.31439
   R15        2.42826  -0.06644   0.00000  -0.12450  -0.12450   2.30376
   R16        3.18122  -0.02545   0.00000  -0.04723  -0.04764   3.13358
   R17        2.43040  -0.06661   0.00000  -0.12507  -0.12507   2.30533
   R18        2.44337  -0.06870   0.00000  -0.13060  -0.13060   2.31277
    A1        2.11751  -0.00241   0.00000  -0.01315  -0.01358   2.10393
    A2        1.81550  -0.00012   0.00000  -0.00516  -0.00598   1.80952
    A3        1.77220   0.00086   0.00000   0.00947   0.00961   1.78181
    A4        2.12010  -0.00733   0.00000  -0.02008  -0.02060   2.09950
    A5        1.89916   0.00383   0.00000   0.01719   0.01728   1.91644
    A6        1.65353   0.00996   0.00000   0.02942   0.02968   1.68322
    A7        1.89859  -0.00007   0.00000  -0.00529  -0.00544   1.89314
    A8        2.16565   0.00096   0.00000   0.00430   0.00436   2.17000
    A9        2.21054  -0.00118   0.00000  -0.00004   0.00004   2.21058
   A10        1.89853  -0.00008   0.00000  -0.00533  -0.00548   1.89305
   A11        2.21056  -0.00117   0.00000  -0.00002   0.00006   2.21061
   A12        2.16567   0.00096   0.00000   0.00431   0.00437   2.17004
   A13        2.11771  -0.00241   0.00000  -0.01314  -0.01357   2.10413
   A14        1.81549  -0.00010   0.00000  -0.00514  -0.00596   1.80952
   A15        1.77135   0.00088   0.00000   0.00953   0.00967   1.78102
   A16        2.11990  -0.00734   0.00000  -0.02013  -0.02064   2.09926
   A17        1.89940   0.00383   0.00000   0.01717   0.01727   1.91666
   A18        1.65415   0.00994   0.00000   0.02939   0.02965   1.68380
   A19        1.70689  -0.01322   0.00000  -0.02961  -0.02996   1.67693
   A20        1.93441   0.00837   0.00000   0.02273   0.02286   1.95727
   A21        1.98132  -0.00030   0.00000  -0.00674  -0.00693   1.97439
   A22        1.93428   0.00837   0.00000   0.02273   0.02286   1.95714
   A23        1.98126  -0.00030   0.00000  -0.00673  -0.00692   1.97434
   A24        1.91774  -0.00296   0.00000  -0.00272  -0.00273   1.91501
   A25        2.18143  -0.01129   0.00000  -0.03527  -0.03525   2.14618
   A26        2.17496  -0.01201   0.00000  -0.03781  -0.03779   2.13717
   A27        1.78249   0.00027   0.00000   0.00357   0.00343   1.78592
   A28        1.55690   0.01598   0.00000   0.05235   0.05177   1.60867
   A29        1.87856   0.00491   0.00000   0.01469   0.01478   1.89334
   A30        1.86451   0.00598   0.00000   0.01306   0.01285   1.87736
   A31        1.78244   0.00027   0.00000   0.00357   0.00344   1.78587
   A32        2.17553  -0.01196   0.00000  -0.03769  -0.03768   2.13786
   A33        2.18107  -0.01134   0.00000  -0.03541  -0.03539   2.14568
   A34        1.86559   0.00594   0.00000   0.01292   0.01271   1.87829
   A35        1.87739   0.00496   0.00000   0.01485   0.01493   1.89232
   A36        1.55683   0.01599   0.00000   0.05236   0.05178   1.60861
    D1        2.90730  -0.00368   0.00000  -0.01637  -0.01640   2.89090
    D2       -0.36537  -0.00598   0.00000  -0.02442  -0.02439  -0.38976
    D3        0.43876   0.01137   0.00000   0.03875   0.03870   0.47745
    D4       -2.83391   0.00907   0.00000   0.03070   0.03070  -2.80320
    D5       -1.27040   0.00062   0.00000   0.00620   0.00602  -1.26438
    D6        1.74012  -0.00168   0.00000  -0.00185  -0.00197   1.73815
    D7       -0.65839  -0.01291   0.00000  -0.05216  -0.05175  -0.71015
    D8        1.36362  -0.00717   0.00000  -0.03350  -0.03345   1.33017
    D9       -2.75147  -0.00476   0.00000  -0.02436  -0.02432  -2.77579
   D10       -3.12567  -0.00023   0.00000  -0.00033  -0.00023  -3.12591
   D11       -1.10366   0.00550   0.00000   0.01833   0.01807  -1.08559
   D12        1.06443   0.00792   0.00000   0.02747   0.02720   1.09163
   D13        1.14202  -0.00929   0.00000  -0.03494  -0.03446   1.10756
   D14       -3.11915  -0.00356   0.00000  -0.01628  -0.01616  -3.13531
   D15       -0.95106  -0.00114   0.00000  -0.00714  -0.00703  -0.95809
   D16       -0.94758   0.00036   0.00000   0.00189   0.00189  -0.94568
   D17       -2.99917   0.00035   0.00000  -0.00188  -0.00195  -3.00112
   D18        1.18017  -0.00028   0.00000   0.00159   0.00171   1.18188
   D19        1.30493   0.00009   0.00000   0.00128   0.00118   1.30611
   D20       -0.74666   0.00007   0.00000  -0.00249  -0.00267  -0.74933
   D21       -2.85051  -0.00056   0.00000   0.00099   0.00100  -2.84951
   D22       -2.78663  -0.00197   0.00000  -0.00104  -0.00069  -2.78733
   D23        1.44496  -0.00199   0.00000  -0.00481  -0.00454   1.44042
   D24       -0.65888  -0.00261   0.00000  -0.00133  -0.00088  -0.65976
   D25        0.00005   0.00000   0.00000   0.00003   0.00003   0.00008
   D26        3.00615  -0.00217   0.00000  -0.00792  -0.00784   2.99831
   D27       -3.00620   0.00217   0.00000   0.00794   0.00786  -2.99834
   D28       -0.00010  -0.00000   0.00000  -0.00001  -0.00001  -0.00011
   D29       -2.90724   0.00367   0.00000   0.01636   0.01638  -2.89087
   D30       -0.43883  -0.01138   0.00000  -0.03879  -0.03875  -0.47757
   D31        1.27074  -0.00065   0.00000  -0.00626  -0.00608   1.26466
   D32        0.36557   0.00598   0.00000   0.02444   0.02441   0.38997
   D33        2.83398  -0.00907   0.00000  -0.03071  -0.03072   2.80327
   D34       -1.73964   0.00166   0.00000   0.00183   0.00195  -1.73769
   D35        0.65842   0.01292   0.00000   0.05219   0.05178   0.71020
   D36       -1.36370   0.00718   0.00000   0.03353   0.03348  -1.33022
   D37        2.75154   0.00477   0.00000   0.02438   0.02434   2.77588
   D38        3.12577   0.00024   0.00000   0.00036   0.00027   3.12604
   D39        1.10365  -0.00549   0.00000  -0.01830  -0.01803   1.08561
   D40       -1.06429  -0.00791   0.00000  -0.02744  -0.02717  -1.09147
   D41       -1.14127   0.00927   0.00000   0.03490   0.03443  -1.10684
   D42        3.11979   0.00354   0.00000   0.01624   0.01612   3.13592
   D43        0.95185   0.00112   0.00000   0.00710   0.00699   0.95884
   D44       -1.18222   0.00028   0.00000  -0.00155  -0.00166  -1.18389
   D45        2.99530  -0.00030   0.00000   0.00211   0.00218   2.99748
   D46        0.94359  -0.00032   0.00000  -0.00165  -0.00166   0.94193
   D47        2.84861   0.00055   0.00000  -0.00097  -0.00098   2.84764
   D48        0.74295  -0.00003   0.00000   0.00269   0.00286   0.74581
   D49       -1.30876  -0.00005   0.00000  -0.00107  -0.00097  -1.30973
   D50        0.65683   0.00262   0.00000   0.00139   0.00093   0.65777
   D51       -1.44883   0.00204   0.00000   0.00504   0.00477  -1.44405
   D52        2.78265   0.00203   0.00000   0.00128   0.00094   2.78358
   D53        0.00136  -0.00003   0.00000  -0.00006  -0.00006   0.00130
   D54        2.31038  -0.01072   0.00000  -0.03538  -0.03561   2.27477
   D55       -2.32111   0.01053   0.00000   0.03153   0.03161  -2.28950
   D56        2.32499  -0.01055   0.00000  -0.03158  -0.03166   2.29333
   D57       -1.64918  -0.02125   0.00000  -0.06690  -0.06722  -1.71639
   D58        0.00252   0.00001   0.00000   0.00000   0.00000   0.00252
   D59       -2.30640   0.01070   0.00000   0.03531   0.03555  -2.27085
   D60        0.00262   0.00000   0.00000  -0.00001  -0.00001   0.00261
   D61        1.65432   0.02126   0.00000   0.06690   0.06721   1.72153
         Item               Value     Threshold  Converged?
 Maximum Force            0.068877     0.000450     NO 
 RMS     Force            0.015414     0.000300     NO 
 Maximum Displacement     0.085217     0.001800     NO 
 RMS     Displacement     0.024456     0.001200     NO 
 Predicted change in Energy=-4.599371D-02
 GradGradGradGradGradGradGradGradGradGradGradGradGradGradGradGradGradGrad

                          Input orientation:                          
 ---------------------------------------------------------------------
 Center     Atomic      Atomic             Coordinates (Angstroms)
 Number     Number       Type             X           Y           Z
 ---------------------------------------------------------------------
      1          6           0       -0.289451   -1.149747    0.357229
      2          6           0       -1.203906   -0.675873   -0.723359
      3          6           0       -1.204265    0.676983   -0.721846
      4          6           0       -0.289936    1.148804    0.359776
      5          1           0       -0.313621   -2.184191    0.686415
      6          1           0       -1.663690   -1.320783   -1.459624
      7          1           0       -1.664298    1.323325   -1.456703
      8          1           0       -0.314430    2.182418    0.691514
      9          6           0       -0.319955   -0.001636    1.391400
     10          1           0       -1.244677   -0.002400    1.983483
     11          1           0        0.545386   -0.002164    2.058936
     12          6           0        1.061153   -0.828643   -0.210894
     13          1           0        1.430085   -1.216287   -1.312513
     14          1           0        2.096928   -1.196181    0.316634
     15          6           0        1.060276    0.829575   -0.210329
     16          1           0        2.097435    1.199182    0.314945
     17          1           0        1.425885    1.216905   -1.312213
 ---------------------------------------------------------------------
                    Distance matrix (angstroms):
                    1          2          3          4          5
     1  C    0.000000
     2  C    1.492801   0.000000
     3  C    2.310461   1.352857   0.000000
     4  C    2.298553   2.310404   1.492823   0.000000
     5  H    1.085828   2.248353   3.311006   3.349046   0.000000
     6  H    2.284456   1.081387   2.178637   3.360994   2.678365
     7  H    3.361048   2.178657   1.081389   2.284497   4.326656
     8  H    3.348984   3.311020   2.248494   1.085821   4.366612
     9  C    1.545509   2.389177   2.389212   1.545529   2.293597
    10  H    2.207616   2.789663   2.789624   2.207538   2.703602
    11  H    2.215786   3.354858   3.354887   2.215769   2.717158
    12  C    1.500000   2.327327   2.767688   2.461992   2.129008
    13  H    2.397763   2.752646   3.297447   3.368780   2.823661
    14  H    2.387175   3.499688   3.935106   3.346332   2.631282
    15  C    2.462032   2.766965   2.326603   1.500000   3.431403
    16  H    3.349101   3.936084   3.499836   2.388323   4.171138
    17  H    3.366074   3.293199   2.749134   2.396712   4.311362
                    6          7          8          9         10
     6  H    0.000000
     7  H    2.644110   0.000000
     8  H    4.326698   2.678623   0.000000
     9  C    3.416739   3.416792   2.293460   0.000000
    10  H    3.710619   3.710594   2.703326   1.098032   0.000000
    11  H    4.358788   4.358824   2.716896   1.092895   1.791653
    12  C    3.037482   3.689321   3.431189   2.271287   3.288589
    13  H    3.099033   4.005700   4.314007   3.442261   4.414914
    14  H    4.160873   4.862043   4.167747   2.902306   3.920437
    15  C    3.688465   3.036535   2.129160   2.271890   3.289043
    16  H    4.862652   4.159902   2.631663   2.905941   3.923969
    17  H    4.000883   3.095390   2.824152   3.441267   4.413640
                   11         12         13         14         15
    11  H    0.000000
    12  C    2.470062   0.000000
    13  H    3.690996   1.224722   0.000000
    14  H    2.620796   1.219098   1.760456   0.000000
    15  C    2.471126   1.658219   2.353109   2.335814   0.000000
    16  H    2.625565   2.337191   2.988054   2.395364   1.219926
    17  H    3.691348   2.351638   2.433196   2.987712   1.223864
                   16         17
    16  H    0.000000
    17  H    1.760379   0.000000
 Stoichiometry    C7H10
 Framework group  C1[X(C7H10)]
 Deg. of freedom    45
 Full point group                 C1      NOp   1
 Largest Abelian subgroup         C1      NOp   1
 Largest concise Abelian subgroup C1      NOp   1
                         Standard orientation:                         
 ---------------------------------------------------------------------
 Center     Atomic      Atomic             Coordinates (Angstroms)
 Number     Number       Type             X           Y           Z
 ---------------------------------------------------------------------
      1          6           0       -0.105030   -1.149641    0.361381
      2          6           0       -1.274532   -0.677704   -0.437366
      3          6           0       -1.276257    0.675151   -0.436489
      4          6           0       -0.107846    1.148910    0.362817
      5          1           0       -0.039431   -2.183837    0.685658
      6          1           0       -1.912698   -1.323749   -1.024535
      7          1           0       -1.915989    1.320358   -1.022878
      8          1           0       -0.044604    2.182770    0.688608
      9          6           0        0.139057   -0.000705    1.365855
     10          1           0       -0.594923   -0.002027    2.182522
     11          1           0        1.150753    0.000305    1.779246
     12          6           0        1.045448   -0.827475   -0.545598
     13          1           0        1.108666   -1.215615   -1.705467
     14          1           0        2.184693   -1.193397   -0.312313
     15          6           0        1.042570    0.830742   -0.545649
     16          1           0        2.181579    1.201964   -0.315273
     17          1           0        1.101494    1.217570   -1.705276
 ---------------------------------------------------------------------
 Rotational constants (GHZ):           3.8128514           3.5813617           3.0640471
 Standard basis: 3-21G (6D, 7F)
 There are    83 symmetry adapted cartesian basis functions of A   symmetry.
 There are    83 symmetry adapted basis functions of A   symmetry.
    83 basis functions,   135 primitive gaussians,    83 cartesian basis functions
    26 alpha electrons       26 beta electrons
       nuclear repulsion energy       307.7965558637 Hartrees.
 NAtoms=   17 NActive=   17 NUniq=   17 SFac= 1.00D+00 NAtFMM=   60 NAOKFM=F Big=F
 Integral buffers will be    131072 words long.
 Raffenetti 2 integral format.
 Two-electron integral symmetry is turned on.
 One-electron integrals computed using PRISM.
 NBasis=    83 RedAO= T EigKep=  4.15D-03  NBF=    83
 NBsUse=    83 1.00D-06 EigRej= -1.00D+00 NBFU=    83
 Initial guess from the checkpoint file:  "C3.chk"
 B after Tr=    -0.000000    0.000000    0.000000
         Rot=    0.999988   -0.000022   -0.004847    0.000060 Ang=  -0.56 deg.
 ExpMin= 1.83D-01 ExpMax= 1.72D+02 ExpMxC= 1.72D+02 IAcc=3 IRadAn=         5 AccDes= 0.00D+00
 Harris functional with IExCor=  402 and IRadAn=       5 diagonalized for initial guess.
 HarFok:  IExCor=  402 AccDes= 0.00D+00 IRadAn=         5 IDoV= 1 UseB2=F ITyADJ=14
 ICtDFT=  3500011 ScaDFX=  1.000000  1.000000  1.000000  1.000000
 FoFCou: FMM=F IPFlag=           0 FMFlag=      100000 FMFlg1=           0
         NFxFlg=           0 DoJE=T BraDBF=F KetDBF=T FulRan=T
         wScrn=  0.000000 ICntrl=       500 IOpCl=  0 I1Cent=   200000004 NGrid=           0
         NMat0=    1 NMatS0=      1 NMatT0=    0 NMatD0=    1 NMtDS0=    0 NMtDT0=    0
 Petite list used in FoFCou.
 Keep R1 ints in memory in canonical form, NReq=7891700.
 Requested convergence on RMS density matrix=1.00D-08 within 128 cycles.
 Requested convergence on MAX density matrix=1.00D-06.
 Requested convergence on             energy=1.00D-06.
 No special actions if energy rises.
 Integral accuracy reduced to 1.0D-05 until final iterations.
 Initial convergence to 1.0D-05 achieved.  Increase integral accuracy.
 SCF Done:  E(RB3LYP) =  -271.186118628     A.U. after   12 cycles
            NFock= 12  Conv=0.52D-08     -V/T= 2.0092
 Calling FoFJK, ICntrl=      2127 FMM=F ISym2X=0 I1Cent= 0 IOpClX= 0 NMat=1 NMatS=1 NMatT=0.
 ***** Axes restored to original set *****
 -------------------------------------------------------------------
 Center     Atomic                   Forces (Hartrees/Bohr)
 Number     Number              X              Y              Z
 -------------------------------------------------------------------
      1        6           0.020010153   -0.015805723    0.008643319
      2        6          -0.022885858    0.017313326   -0.008490490
      3        6          -0.022915406   -0.017323140   -0.008493305
      4        6           0.019963506    0.015787674    0.008642913
      5        1          -0.012233668   -0.000172203    0.005483507
      6        1           0.000132112    0.000080799    0.000211916
      7        1           0.000131168   -0.000080324    0.000215548
      8        1          -0.012229768    0.000162100    0.005457699
      9        6          -0.036070817   -0.000009323    0.026815778
     10        1          -0.000022333   -0.000000337   -0.000525937
     11        1          -0.000007355   -0.000001055   -0.001199012
     12        6           0.125147958    0.004074426   -0.058844764
     13        1          -0.037687559    0.015086734    0.041994616
     14        1          -0.054412139    0.014281809   -0.001472640
     15        6           0.125149433   -0.003918844   -0.058942106
     16        1          -0.054563751   -0.014513534   -0.001410038
     17        1          -0.037505675   -0.014962383    0.041912999
 -------------------------------------------------------------------
 Cartesian Forces:  Max     0.125149433 RMS     0.033451808

 GradGradGradGradGradGradGradGradGradGradGradGradGradGradGradGradGradGrad
 Berny optimization.
 Using GEDIIS/GDIIS optimizer.
 FormGI is forming the generalized inverse of G from B-inverse, IUseBI=4.
 Internal  Forces:  Max     0.053900608 RMS     0.012829329
 Search for a local minimum.
 Step number   2 out of a maximum of  102
 All quantities printed in internal units (Hartrees-Bohrs-Radians)
 Mixed Optimization -- RFO/linear search
 Update second derivatives using D2CorX and points    1    2
 DE= -4.91D-02 DEPred=-4.60D-02 R= 1.07D+00
 TightC=F SS=  1.41D+00  RLast= 3.52D-01 DXNew= 5.0454D-01 1.0570D+00
 Trust test= 1.07D+00 RLast= 3.52D-01 DXMaxT set to 5.05D-01
 ITU=  1  0
 Use linear search instead of GDIIS.
 Linear search step of   0.600 exceeds DXMaxT=   0.505 but not scaled.
 Quartic linear search produced a step of  2.00000.
 Iteration  1 RMS(Cart)=  0.04177688 RMS(Int)=  0.01228097
 Iteration  2 RMS(Cart)=  0.01186016 RMS(Int)=  0.00144817
 Iteration  3 RMS(Cart)=  0.00006482 RMS(Int)=  0.00144602
 Iteration  4 RMS(Cart)=  0.00000010 RMS(Int)=  0.00144602
 Iteration  1 RMS(Cart)=  0.00009495 RMS(Int)=  0.00000853
 Iteration  2 RMS(Cart)=  0.00000147 RMS(Int)=  0.00000860
 Iteration  3 RMS(Cart)=  0.00000002 RMS(Int)=  0.00000860
 Variable       Old X    -DE/DX   Delta X   Delta X   Delta X     New X
                                 (Linear)    (Quad)   (Total)
    R1        2.82099   0.02102   0.07944   0.00000   0.07958   2.90056
    R2        2.05192   0.00210   0.00737   0.00000   0.00737   2.05929
    R3        2.92059   0.00809   0.03903   0.00000   0.04046   2.96105
    R4        2.83459   0.03960  -0.00000   0.00000   0.00000   2.83459
    R5        2.55653  -0.01401  -0.04997   0.00000  -0.04953   2.50700
    R6        2.04353  -0.00025  -0.00217   0.00000  -0.00217   2.04136
    R7        2.82103   0.02101   0.07941   0.00000   0.07955   2.90057
    R8        2.04353  -0.00025  -0.00217   0.00000  -0.00217   2.04136
    R9        2.05190   0.00210   0.00736   0.00000   0.00736   2.05927
   R10        2.92063   0.00809   0.03900   0.00000   0.04043   2.96105
   R11        2.83459   0.03962  -0.00000   0.00000   0.00000   2.83459
   R12        2.07498  -0.00027   0.00636   0.00000   0.00636   2.08134
   R13        2.06527  -0.00074  -0.00679   0.00000  -0.00679   2.05848
   R14        2.31439  -0.05390  -0.26241   0.00000  -0.26241   2.05198
   R15        2.30376  -0.05117  -0.24900   0.00000  -0.24900   2.05476
   R16        3.13358  -0.01997  -0.09527   0.00000  -0.09768   3.03590
   R17        2.30533  -0.05139  -0.25015   0.00000  -0.25015   2.05518
   R18        2.31277  -0.05367  -0.26121   0.00000  -0.26121   2.05156
    A1        2.10393  -0.00240  -0.02717   0.00000  -0.02991   2.07402
    A2        1.80952  -0.00201  -0.01197   0.00000  -0.01693   1.79259
    A3        1.78181   0.00219   0.01921   0.00000   0.02026   1.80207
    A4        2.09950  -0.00452  -0.04120   0.00000  -0.04427   2.05523
    A5        1.91644   0.00345   0.03457   0.00000   0.03514   1.95158
    A6        1.68322   0.00644   0.05937   0.00000   0.06076   1.74397
    A7        1.89314  -0.00016  -0.01089   0.00000  -0.01182   1.88133
    A8        2.17000   0.00004   0.00872   0.00000   0.00905   2.17906
    A9        2.21058  -0.00007   0.00008   0.00000   0.00054   2.21112
   A10        1.89305  -0.00017  -0.01096   0.00000  -0.01188   1.88117
   A11        2.21061  -0.00007   0.00012   0.00000   0.00058   2.21119
   A12        2.17004   0.00005   0.00873   0.00000   0.00907   2.17910
   A13        2.10413  -0.00240  -0.02715   0.00000  -0.02989   2.07425
   A14        1.80952  -0.00200  -0.01192   0.00000  -0.01690   1.79263
   A15        1.78102   0.00221   0.01934   0.00000   0.02039   1.80141
   A16        2.09926  -0.00453  -0.04128   0.00000  -0.04434   2.05492
   A17        1.91666   0.00345   0.03453   0.00000   0.03510   1.95176
   A18        1.68380   0.00642   0.05930   0.00000   0.06070   1.74449
   A19        1.67693  -0.00697  -0.05992   0.00000  -0.06189   1.61505
   A20        1.95727   0.00508   0.04572   0.00000   0.04641   2.00368
   A21        1.97439  -0.00124  -0.01386   0.00000  -0.01495   1.95944
   A22        1.95714   0.00508   0.04572   0.00000   0.04641   2.00354
   A23        1.97434  -0.00124  -0.01384   0.00000  -0.01493   1.95941
   A24        1.91501  -0.00096  -0.00545   0.00000  -0.00549   1.90953
   A25        2.14618  -0.00999  -0.07050   0.00000  -0.07032   2.07586
   A26        2.13717  -0.01056  -0.07558   0.00000  -0.07543   2.06174
   A27        1.78592   0.00027   0.00686   0.00000   0.00600   1.79191
   A28        1.60867   0.01405   0.10353   0.00000   0.09968   1.70835
   A29        1.89334   0.00439   0.02955   0.00000   0.02991   1.92325
   A30        1.87736   0.00462   0.02570   0.00000   0.02424   1.90160
   A31        1.78587   0.00026   0.00687   0.00000   0.00601   1.79188
   A32        2.13786  -0.01052  -0.07535   0.00000  -0.07520   2.06266
   A33        2.14568  -0.01003  -0.07077   0.00000  -0.07060   2.07509
   A34        1.87829   0.00459   0.02541   0.00000   0.02395   1.90224
   A35        1.89232   0.00443   0.02987   0.00000   0.03023   1.92256
   A36        1.60861   0.01406   0.10356   0.00000   0.09970   1.70831
    D1        2.89090  -0.00372  -0.03279   0.00000  -0.03291   2.85799
    D2       -0.38976  -0.00508  -0.04878   0.00000  -0.04850  -0.43826
    D3        0.47745   0.00809   0.07739   0.00000   0.07674   0.55420
    D4       -2.80320   0.00673   0.06141   0.00000   0.06115  -2.74205
    D5       -1.26438   0.00115   0.01204   0.00000   0.01100  -1.25338
    D6        1.73815  -0.00020  -0.00394   0.00000  -0.00459   1.73356
    D7       -0.71015  -0.01016  -0.10351   0.00000  -0.10084  -0.81099
    D8        1.33017  -0.00633  -0.06690   0.00000  -0.06641   1.26376
    D9       -2.77579  -0.00452  -0.04864   0.00000  -0.04824  -2.82403
   D10       -3.12591   0.00051  -0.00047   0.00000   0.00001  -3.12589
   D11       -1.08559   0.00433   0.03614   0.00000   0.03445  -1.05115
   D12        1.09163   0.00614   0.05441   0.00000   0.05262   1.14425
   D13        1.10756  -0.00642  -0.06893   0.00000  -0.06605   1.04151
   D14       -3.13531  -0.00259  -0.03232   0.00000  -0.03162   3.11626
   D15       -0.95809  -0.00079  -0.01405   0.00000  -0.01345  -0.97153
   D16       -0.94568  -0.00024   0.00379   0.00000   0.00395  -0.94174
   D17       -3.00112  -0.00080  -0.00391   0.00000  -0.00437  -3.00549
   D18        1.18188  -0.00062   0.00342   0.00000   0.00410   1.18599
   D19        1.30611   0.00022   0.00236   0.00000   0.00186   1.30797
   D20       -0.74933  -0.00034  -0.00533   0.00000  -0.00646  -0.75579
   D21       -2.84951  -0.00016   0.00200   0.00000   0.00201  -2.84750
   D22       -2.78733  -0.00018  -0.00139   0.00000   0.00075  -2.78657
   D23        1.44042  -0.00074  -0.00908   0.00000  -0.00757   1.43285
   D24       -0.65976  -0.00056  -0.00175   0.00000   0.00091  -0.65885
   D25        0.00008   0.00000   0.00005   0.00000   0.00005   0.00013
   D26        2.99831  -0.00139  -0.01569   0.00000  -0.01514   2.98316
   D27       -2.99834   0.00139   0.01572   0.00000   0.01517  -2.98317
   D28       -0.00011  -0.00000  -0.00002   0.00000  -0.00002  -0.00013
   D29       -2.89087   0.00371   0.03276   0.00000   0.03288  -2.85799
   D30       -0.47757  -0.00810  -0.07749   0.00000  -0.07684  -0.55441
   D31        1.26466  -0.00117  -0.01216   0.00000  -0.01112   1.25354
   D32        0.38997   0.00508   0.04882   0.00000   0.04854   0.43851
   D33        2.80327  -0.00673  -0.06143   0.00000  -0.06119   2.74208
   D34       -1.73769   0.00019   0.00389   0.00000   0.00454  -1.73315
   D35        0.71020   0.01016   0.10356   0.00000   0.10090   0.81110
   D36       -1.33022   0.00633   0.06695   0.00000   0.06646  -1.26376
   D37        2.77588   0.00453   0.04868   0.00000   0.04828   2.82417
   D38        3.12604  -0.00050   0.00054   0.00000   0.00006   3.12610
   D39        1.08561  -0.00433  -0.03607   0.00000  -0.03438   1.05124
   D40       -1.09147  -0.00613  -0.05434   0.00000  -0.05255  -1.14402
   D41       -1.10684   0.00641   0.06886   0.00000   0.06598  -1.04086
   D42        3.13592   0.00258   0.03225   0.00000   0.03155  -3.11572
   D43        0.95884   0.00078   0.01397   0.00000   0.01337   0.97221
   D44       -1.18389   0.00062  -0.00332   0.00000  -0.00400  -1.18788
   D45        2.99748   0.00084   0.00435   0.00000   0.00482   3.00229
   D46        0.94193   0.00029  -0.00332   0.00000  -0.00348   0.93845
   D47        2.84764   0.00015  -0.00195   0.00000  -0.00197   2.84567
   D48        0.74581   0.00037   0.00572   0.00000   0.00685   0.75266
   D49       -1.30973  -0.00018  -0.00195   0.00000  -0.00145  -1.31118
   D50        0.65777   0.00056   0.00187   0.00000  -0.00078   0.65698
   D51       -1.44405   0.00078   0.00955   0.00000   0.00803  -1.43603
   D52        2.78358   0.00022   0.00187   0.00000  -0.00027   2.78331
   D53        0.00130  -0.00002  -0.00011   0.00000  -0.00012   0.00119
   D54        2.27477  -0.00980  -0.07122   0.00000  -0.07265   2.20212
   D55       -2.28950   0.00931   0.06322   0.00000   0.06379  -2.22571
   D56        2.29333  -0.00933  -0.06333   0.00000  -0.06389   2.22943
   D57       -1.71639  -0.01911  -0.13444   0.00000  -0.13642  -1.85282
   D58        0.00252   0.00000   0.00001   0.00000   0.00001   0.00253
   D59       -2.27085   0.00978   0.07109   0.00000   0.07251  -2.19834
   D60        0.00261  -0.00000  -0.00002   0.00000  -0.00002   0.00259
   D61        1.72153   0.01911   0.13442   0.00000   0.13641   1.85794
         Item               Value     Threshold  Converged?
 Maximum Force            0.053901     0.000450     NO 
 RMS     Force            0.011803     0.000300     NO 
 Maximum Displacement     0.165210     0.001800     NO 
 RMS     Displacement     0.049126     0.001200     NO 
 Predicted change in Energy=-6.106511D-02
 GradGradGradGradGradGradGradGradGradGradGradGradGradGradGradGradGradGrad

                          Input orientation:                          
 ---------------------------------------------------------------------
 Center     Atomic      Atomic             Coordinates (Angstroms)
 Number     Number       Type             X           Y           Z
 ---------------------------------------------------------------------
      1          6           0       -0.218469   -1.132665    0.340421
      2          6           0       -1.199203   -0.662771   -0.742775
      3          6           0       -1.199614    0.663874   -0.741325
      4          6           0       -0.218981    1.131777    0.342831
      5          1           0       -0.268385   -2.166304    0.681903
      6          1           0       -1.671685   -1.307521   -1.469396
      7          1           0       -1.672377    1.309979   -1.466557
      8          1           0       -0.269201    2.164546    0.686849
      9          6           0       -0.328611   -0.001618    1.419235
     10          1           0       -1.267398   -0.002350    1.995219
     11          1           0        0.517201   -0.002136    2.105660
     12          6           0        1.123073   -0.802765   -0.243901
     13          1           0        1.372086   -1.177117   -1.232307
     14          1           0        2.009898   -1.155653    0.276965
     15          6           0        1.122224    0.803763   -0.243324
     16          1           0        2.010009    1.157942    0.275488
     17          1           0        1.368350    1.178304   -1.232137
 ---------------------------------------------------------------------
                    Distance matrix (angstroms):
                    1          2          3          4          5
     1  C    0.000000
     2  C    1.534911   0.000000
     3  C    2.315248   1.326645   0.000000
     4  C    2.264443   2.315119   1.534917   0.000000
     5  H    1.089729   2.270845   3.301919   3.315832   0.000000
     6  H    2.327627   1.080240   2.153911   3.368187   2.708292
     7  H    3.368313   2.153950   1.080241   2.327661   4.321067
     8  H    3.315748   3.301886   2.270984   1.089717   4.330852
     9  C    1.566920   2.422672   2.422714   1.566923   2.287608
    10  H    2.261907   2.817343   2.817290   2.261816   2.721309
    11  H    2.221570   3.390584   3.390626   2.221551   2.707000
    12  C    1.500000   2.379378   2.791655   2.426482   2.156966
    13  H    2.237256   2.667530   3.200617   3.216138   2.708105
    14  H    2.229389   3.403106   3.827344   3.194460   2.525067
    15  C    2.426513   2.790913   2.378762   1.500000   3.407511
    16  H    3.196437   3.827649   3.402895   2.230160   4.050538
    17  H    3.214267   3.197086   2.664578   2.236584   4.186747
                    6          7          8          9         10
     6  H    0.000000
     7  H    2.617502   0.000000
     8  H    4.321065   2.708569   0.000000
     9  C    3.442879   3.442933   2.287397   0.000000
    10  H    3.724309   3.724260   2.720968   1.101399   0.000000
    11  H    4.390475   4.390517   2.706652   1.089302   1.788013
    12  C    3.093103   3.711216   3.407295   2.348456   3.371747
    13  H    3.055775   3.938182   4.188519   3.362268   4.331730
    14  H    4.077609   4.762181   4.047965   2.846965   3.875975
    15  C    3.710350   3.092306   2.157085   2.348970   3.372119
    16  H    4.762142   4.076495   2.525326   2.849891   3.878808
    17  H    3.934137   3.052592   2.708644   3.361795   4.330929
                   11         12         13         14         15
    11  H    0.000000
    12  C    2.555097   0.000000
    13  H    3.640526   1.085861   0.000000
    14  H    2.627332   1.087332   1.638648   0.000000
    15  C    2.556022   1.606528   2.228094   2.213137   0.000000
    16  H    2.631309   2.213773   2.851822   2.313595   1.087553
    17  H    3.641261   2.227422   2.355424   2.852425   1.085639
                   16         17
    16  H    0.000000
    17  H    1.638620   0.000000
 Stoichiometry    C7H10
 Framework group  C1[X(C7H10)]
 Deg. of freedom    45
 Full point group                 C1      NOp   1
 Largest Abelian subgroup         C1      NOp   1
 Largest concise Abelian subgroup C1      NOp   1
                         Standard orientation:                         
 ---------------------------------------------------------------------
 Center     Atomic      Atomic             Coordinates (Angstroms)
 Number     Number       Type             X           Y           Z
 ---------------------------------------------------------------------
      1          6           0       -0.061779   -1.132566    0.343460
      2          6           0       -1.299051   -0.664272   -0.434878
      3          6           0       -1.300495    0.662372   -0.433811
      4          6           0       -0.064076    1.131875    0.345165
      5          1           0       -0.016524   -2.166042    0.686081
      6          1           0       -1.949468   -1.309918   -1.006734
      7          1           0       -1.952206    1.307582   -1.004685
      8          1           0       -0.020671    2.164807    0.689623
      9          6           0        0.122210   -0.000963    1.411572
     10          1           0       -0.626202   -0.002238    2.219629
     11          1           0        1.121939   -0.000253    1.844145
     12          6           0        1.071824   -0.801744   -0.581474
     13          1           0        1.045136   -1.176464   -1.600280
     14          1           0        2.066725   -1.153467   -0.319267
     15          6           0        1.069420    0.804782   -0.581223
     16          1           0        2.063925    1.160126   -0.321489
     17          1           0        1.039031    1.178952   -1.599891
 ---------------------------------------------------------------------
 Rotational constants (GHZ):           3.8474590           3.4970151           3.0894779
 Standard basis: 3-21G (6D, 7F)
 There are    83 symmetry adapted cartesian basis functions of A   symmetry.
 There are    83 symmetry adapted basis functions of A   symmetry.
    83 basis functions,   135 primitive gaussians,    83 cartesian basis functions
    26 alpha electrons       26 beta electrons
       nuclear repulsion energy       308.7245200547 Hartrees.
 NAtoms=   17 NActive=   17 NUniq=   17 SFac= 1.00D+00 NAtFMM=   60 NAOKFM=F Big=F
 Integral buffers will be    131072 words long.
 Raffenetti 2 integral format.
 Two-electron integral symmetry is turned on.
 One-electron integrals computed using PRISM.
 NBasis=    83 RedAO= T EigKep=  4.23D-03  NBF=    83
 NBsUse=    83 1.00D-06 EigRej= -1.00D+00 NBFU=    83
 Initial guess from the checkpoint file:  "C3.chk"
 B after Tr=     0.000000    0.000000    0.000000
         Rot=    0.999996   -0.000074   -0.002889    0.000113 Ang=  -0.33 deg.
 ExpMin= 1.83D-01 ExpMax= 1.72D+02 ExpMxC= 1.72D+02 IAcc=3 IRadAn=         5 AccDes= 0.00D+00
 Harris functional with IExCor=  402 and IRadAn=       5 diagonalized for initial guess.
 HarFok:  IExCor=  402 AccDes= 0.00D+00 IRadAn=         5 IDoV= 1 UseB2=F ITyADJ=14
 ICtDFT=  3500011 ScaDFX=  1.000000  1.000000  1.000000  1.000000
 FoFCou: FMM=F IPFlag=           0 FMFlag=      100000 FMFlg1=           0
         NFxFlg=           0 DoJE=T BraDBF=F KetDBF=T FulRan=T
         wScrn=  0.000000 ICntrl=       500 IOpCl=  0 I1Cent=   200000004 NGrid=           0
         NMat0=    1 NMatS0=      1 NMatT0=    0 NMatD0=    1 NMtDS0=    0 NMtDT0=    0
 Petite list used in FoFCou.
 Keep R1 ints in memory in canonical form, NReq=7891700.
 Requested convergence on RMS density matrix=1.00D-08 within 128 cycles.
 Requested convergence on MAX density matrix=1.00D-06.
 Requested convergence on             energy=1.00D-06.
 No special actions if energy rises.
 Integral accuracy reduced to 1.0D-05 until final iterations.
 Initial convergence to 1.0D-05 achieved.  Increase integral accuracy.
 SCF Done:  E(RB3LYP) =  -271.235469150     A.U. after   12 cycles
            NFock= 12  Conv=0.42D-08     -V/T= 2.0076
 Calling FoFJK, ICntrl=      2127 FMM=F ISym2X=0 I1Cent= 0 IOpClX= 0 NMat=1 NMatS=1 NMatT=0.
 ***** Axes restored to original set *****
 -------------------------------------------------------------------
 Center     Atomic                   Forces (Hartrees/Bohr)
 Number     Number              X              Y              Z
 -------------------------------------------------------------------
      1        6          -0.009765503   -0.016799286    0.010342077
      2        6          -0.005426214   -0.012038147    0.004611928
      3        6          -0.005445278    0.011998557    0.004678370
      4        6          -0.009783438    0.016786298    0.010391075
      5        1          -0.008193268    0.000356054    0.001370721
      6        1          -0.000561764   -0.002242576    0.000692847
      7        1          -0.000565088    0.002239433    0.000700626
      8        1          -0.008193320   -0.000347096    0.001342495
      9        6          -0.016477546    0.000006015   -0.003740539
     10        1           0.002021581    0.000005940   -0.007076390
     11        1           0.003471462   -0.000003865    0.000944676
     12        6           0.048598316    0.021420678   -0.021025589
     13        1          -0.016947419   -0.002806852   -0.012557390
     14        1          -0.002203115   -0.002042417    0.021501971
     15        6           0.048672296   -0.021363038   -0.021011842
     16        1          -0.002287589    0.001947484    0.021472667
     17        1          -0.016914114    0.002882817   -0.012637703
 -------------------------------------------------------------------
 Cartesian Forces:  Max     0.048672296 RMS     0.014170895

 GradGradGradGradGradGradGradGradGradGradGradGradGradGradGradGradGradGrad
 Berny optimization.
 Using GEDIIS/GDIIS optimizer.
 FormGI is forming the generalized inverse of G from B-inverse, IUseBI=4.
 Internal  Forces:  Max     0.033842688 RMS     0.006215346
 Search for a local minimum.
 Step number   3 out of a maximum of  102
 All quantities printed in internal units (Hartrees-Bohrs-Radians)
 Mixed Optimization -- RFO/linear search
 Update second derivatives using D2CorX and points    2    3
 ITU=  0  1  0
 Use linear search instead of GDIIS.
     Eigenvalues ---    0.00694   0.01530   0.01683   0.01819   0.02031
     Eigenvalues ---    0.02445   0.03305   0.04253   0.04300   0.04678
     Eigenvalues ---    0.04873   0.04970   0.05024   0.05243   0.05856
     Eigenvalues ---    0.06441   0.06858   0.07280   0.07346   0.07421
     Eigenvalues ---    0.09167   0.10579   0.12588   0.12920   0.15456
     Eigenvalues ---    0.15748   0.17540   0.18047   0.18924   0.19137
     Eigenvalues ---    0.19345   0.24244   0.24674   0.25534   0.30763
     Eigenvalues ---    0.33838   0.34133   0.34306   0.35526   0.35530
     Eigenvalues ---    0.35758   0.35763   0.467151000.000001000.00000
     Eigenvalues --- 1000.000001000.000001000.000001000.000001000.00000
     Eigenvalues --- 1000.000001000.000001000.000001000.000001000.00000
     Eigenvalues --- 1000.000001000.000001000.000001000.000001000.00000
     Eigenvalues --- 1000.000001000.000001000.000001000.000001000.00000
     Eigenvalues --- 1000.000001000.000001000.000001000.000001000.00000
     Eigenvalues --- 1000.000001000.000001000.000001000.000001000.00000
     Eigenvalues --- 1000.000001000.000001000.000001000.000001000.00000
     Eigenvalues --- 1000.000001000.000001000.000001000.000001000.00000
     Eigenvalues --- 1000.000001000.000001000.000001000.000001000.00000
     Eigenvalues --- 1000.000001000.000001000.000001000.000001000.00000
     Eigenvalues --- 1000.000001000.000001000.000001000.000001000.00000
     Eigenvalues --- 1000.000001000.000001000.000001000.000001000.00000
     Eigenvalues --- 1000.000001000.000001000.000001000.000001000.00000
     Eigenvalues --- 1000.000001000.000001000.000001000.000001000.00000
 RFO step:  Lambda=-1.94616227D-02 EMin= 6.94068418D-03
 Quartic linear search produced a step of  0.03811.
 Iteration  1 RMS(Cart)=  0.03724423 RMS(Int)=  0.00183921
 Iteration  2 RMS(Cart)=  0.00158828 RMS(Int)=  0.00086113
 Iteration  3 RMS(Cart)=  0.00000211 RMS(Int)=  0.00086113
 Iteration  4 RMS(Cart)=  0.00000000 RMS(Int)=  0.00086113
 Iteration  1 RMS(Cart)=  0.00000958 RMS(Int)=  0.00000087
 Iteration  2 RMS(Cart)=  0.00000015 RMS(Int)=  0.00000088
 Variable       Old X    -DE/DX   Delta X   Delta X   Delta X     New X
                                 (Linear)    (Quad)   (Total)
    R1        2.90056   0.00017   0.00303   0.00407   0.00703   2.90759
    R2        2.05929   0.00047   0.00028   0.00153   0.00181   2.06110
    R3        2.96105  -0.00048   0.00154  -0.00667  -0.00513   2.95592
    R4        2.83459   0.03382   0.00000   0.00000   0.00000   2.83459
    R5        2.50700   0.01462  -0.00189   0.02664   0.02452   2.53152
    R6        2.04136   0.00112  -0.00008   0.00288   0.00280   2.04416
    R7        2.90057   0.00017   0.00303   0.00410   0.00706   2.90763
    R8        2.04136   0.00112  -0.00008   0.00288   0.00280   2.04416
    R9        2.05927   0.00047   0.00028   0.00154   0.00182   2.06109
   R10        2.96105  -0.00047   0.00154  -0.00666  -0.00512   2.95594
   R11        2.83459   0.03384   0.00000   0.00000   0.00000   2.83459
   R12        2.08134  -0.00542   0.00024  -0.01482  -0.01458   2.06676
   R13        2.05848   0.00329  -0.00026   0.00884   0.00858   2.06706
   R14        2.05198   0.00851  -0.01000   0.03286   0.02286   2.07484
   R15        2.05476   0.00917  -0.00949   0.03533   0.02584   2.08060
   R16        3.03590  -0.00399  -0.00372  -0.01227  -0.01576   3.02014
   R17        2.05518   0.00901  -0.00953   0.03469   0.02516   2.08033
   R18        2.05156   0.00867  -0.00995   0.03353   0.02357   2.07513
    A1        2.07402  -0.00253  -0.00114  -0.03204  -0.03611   2.03791
    A2        1.79259  -0.00468  -0.00065  -0.04678  -0.04861   1.74398
    A3        1.80207   0.00460   0.00077   0.03605   0.03728   1.83935
    A4        2.05523   0.00148  -0.00169  -0.01034  -0.01457   2.04066
    A5        1.95158   0.00265   0.00134   0.04819   0.05009   2.00167
    A6        1.74397  -0.00113   0.00232   0.01441   0.01694   1.76092
    A7        1.88133  -0.00051  -0.00045  -0.00073  -0.00147   1.87986
    A8        2.17906  -0.00157   0.00034  -0.00917  -0.00872   2.17034
    A9        2.21112   0.00217   0.00002   0.01148   0.01165   2.22277
   A10        1.88117  -0.00050  -0.00045  -0.00065  -0.00140   1.87977
   A11        2.21119   0.00216   0.00002   0.01144   0.01160   2.22280
   A12        2.17910  -0.00158   0.00035  -0.00921  -0.00875   2.17035
   A13        2.07425  -0.00253  -0.00114  -0.03205  -0.03613   2.03811
[...]
 ! D13   D(12,1,9,4)            57.0575         -DE/DX =    0.0007              !
 ! D14   D(12,1,9,10)          173.3294         -DE/DX =    0.0004              !
 ! D15   D(12,1,9,11)          -59.3959         -DE/DX =    0.0002              !
 ! D16   D(2,1,12,13)          -53.3984         -DE/DX =   -0.0001              !
 ! D17   D(2,1,12,14)         -175.1502         -DE/DX =   -0.0004              !
 ! D18   D(2,1,12,15)           67.1129         -DE/DX =   -0.0002              !
 ! D19   D(5,1,12,13)           76.2234         -DE/DX =    0.0                 !
 ! D20   D(5,1,12,14)          -45.5285         -DE/DX =   -0.0003              !
 ! D21   D(5,1,12,15)         -163.2654         -DE/DX =   -0.0001              !
 ! D22   D(9,1,12,13)         -156.9336         -DE/DX =    0.0005              !
 ! D23   D(9,1,12,14)           81.3145         -DE/DX =    0.0002              !
 ! D24   D(9,1,12,15)          -36.4224         -DE/DX =    0.0004              !
 ! D25   D(1,2,3,4)             -0.0002         -DE/DX =    0.0                 !
 ! D26   D(1,2,3,7)            173.9428         -DE/DX =    0.0007              !
 ! D27   D(6,2,3,4)           -173.9439         -DE/DX =   -0.0007              !
 ! D28   D(6,2,3,7)             -0.0009         -DE/DX =    0.0                 !
 ! D29   D(2,3,4,8)           -160.0494         -DE/DX =    0.0007              !
 ! D30   D(2,3,4,9)            -34.5021         -DE/DX =    0.0005              !
 ! D31   D(2,3,4,15)            70.2693         -DE/DX =    0.0014              !
 ! D32   D(7,3,4,8)             25.7658         -DE/DX =    0.0001              !
 ! D33   D(7,3,4,9)            151.3132         -DE/DX =   -0.0002              !
 ! D34   D(7,3,4,15)          -103.9155         -DE/DX =    0.0007              !
 ! D35   D(3,4,9,1)             51.5983         -DE/DX =   -0.0003              !
 ! D36   D(3,4,9,10)           -64.6745         -DE/DX =    0.0                 !
 ! D37   D(3,4,9,11)           168.0513         -DE/DX =    0.0002              !
 ! D38   D(8,4,9,1)            176.577          -DE/DX =   -0.0005              !
 ! D39   D(8,4,9,10)            60.3042         -DE/DX =   -0.0002              !
 ! D40   D(8,4,9,11)           -66.97           -DE/DX =    0.0001              !
 ! D41   D(15,4,9,1)           -57.0557         -DE/DX =   -0.0007              !
 ! D42   D(15,4,9,10)         -173.3284         -DE/DX =   -0.0004              !
 ! D43   D(15,4,9,11)           59.3973         -DE/DX =   -0.0002              !
 ! D44   D(3,4,15,12)          -67.1184         -DE/DX =    0.0002              !
 ! D45   D(3,4,15,16)          175.1393         -DE/DX =    0.0004              !
 ! D46   D(3,4,15,17)           53.387          -DE/DX =    0.0001              !
 ! D47   D(8,4,15,12)          163.2594         -DE/DX =    0.0001              !
 ! D48   D(8,4,15,16)           45.5171         -DE/DX =    0.0003              !
 ! D49   D(8,4,15,17)          -76.2352         -DE/DX =    0.0                 !
 ! D50   D(9,4,15,12)           36.4168         -DE/DX =   -0.0004              !
 ! D51   D(9,4,15,16)          -81.3255         -DE/DX =   -0.0002              !
 ! D52   D(9,4,15,17)          156.9221         -DE/DX =   -0.0005              !
 ! D53   D(1,12,15,4)            0.0036         -DE/DX =    0.0                 !
 ! D54   D(1,12,15,16)         118.8839         -DE/DX =   -0.0002              !
 ! D55   D(1,12,15,17)        -121.2058         -DE/DX =    0.0001              !
 ! D56   D(13,12,15,4)         121.2193         -DE/DX =   -0.0001              !
 ! D57   D(13,12,15,16)       -119.9004         -DE/DX =   -0.0003              !
 ! D58   D(13,12,15,17)          0.0099         -DE/DX =    0.0                 !
 ! D59   D(14,12,15,4)        -118.8699         -DE/DX =    0.0002              !
 ! D60   D(14,12,15,16)          0.0104         -DE/DX =    0.0                 !
 ! D61   D(14,12,15,17)        119.9207         -DE/DX =    0.0003              !
 --------------------------------------------------------------------------------
 GradGradGradGradGradGradGradGradGradGradGradGradGradGradGradGradGradGrad

                          Input orientation:                          
 ---------------------------------------------------------------------
 Center     Atomic      Atomic             Coordinates (Angstroms)
 Number     Number       Type             X           Y           Z
 ---------------------------------------------------------------------
      1          6           0       -0.150869   -1.135093    0.312090
      2          6           0       -1.193309   -0.669583   -0.724662
      3          6           0       -1.193717    0.670002   -0.723558
      4          6           0       -0.151555    1.134429    0.313974
      5          1           0       -0.266294   -2.158754    0.669338
      6          1           0       -1.733059   -1.330483   -1.389951
      7          1           0       -1.733855    1.331679   -1.387760
      8          1           0       -0.267604    2.157411    0.672955
      9          6           0       -0.320020   -0.001269    1.379001
     10          1           0       -1.307321   -0.001943    1.844969
     11          1           0        0.475098   -0.001660    2.132873
     12          6           0        1.190644   -0.795386   -0.266652
     13          1           0        1.330012   -1.198355   -1.274065
     14          1           0        2.006095   -1.167752    0.365095
     15          6           0        1.190139    0.796505   -0.265390
     16          1           0        2.005454    1.168436    0.366786
     17          1           0        1.329079    1.201101   -1.272193
 ---------------------------------------------------------------------
                    Distance matrix (angstroms):
                    1          2          3          4          5
     1  C    0.000000
     2  C    1.542153   0.000000
     3  C    2.327761   1.339586   0.000000
     4  C    2.269523   2.327762   1.542163   0.000000
     5  H    1.090335   2.240586   3.286660   3.314287   0.000000
     6  H    2.332047   1.082002   2.176445   3.388260   2.660470
     7  H    3.388259   2.176450   1.082002   2.332054   4.309118
     8  H    3.314278   3.286664   2.240607   1.090334   4.316167
     9  C    1.566036   2.373748   2.373754   1.566037   2.271838
    10  H    2.229603   2.657395   2.657396   2.229592   2.667898
    11  H    2.234224   3.375679   3.375688   2.234230   2.710102
    12  C    1.500000   2.430809   2.835719   2.421324   2.203977
    13  H    2.170921   2.636019   3.187950   3.187286   2.692094
    14  H    2.157863   3.416421   3.847246   3.155647   2.497679
    15  C    2.421334   2.835695   2.430780   1.500000   3.424685
    16  H    3.155783   3.847292   3.416428   2.157924   4.040119
    17  H    3.187162   3.187740   2.635823   2.170864   4.195638
                    6          7          8          9         10
     6  H    0.000000
     7  H    2.662163   0.000000
     8  H    4.309124   2.660502   0.000000
     9  C    3.380915   3.380924   2.271816   0.000000
    10  H    3.522922   3.522927   2.667853   1.091737   0.000000
    11  H    4.364861   4.364873   2.710084   1.095689   1.805520
    12  C    3.177446   3.786024   3.424669   2.370844   3.365757
    13  H    3.068109   3.975082   4.195764   3.345800   4.256207
    14  H    4.133756   4.827720   4.039950   2.792758   3.811543
    15  C    3.786000   3.177399   2.203990   2.370875   3.365775
    16  H    4.827752   4.133704   2.497720   2.792958   3.811730
    17  H    3.974855   3.067893   2.692123   3.345751   4.256127
                   11         12         13         14         15
    11  H    0.000000
    12  C    2.626733   0.000000
    13  H    3.710819   1.093932   0.000000
    14  H    2.613190   1.096687   1.773378   0.000000
    15  C    2.626788   1.591891   2.239744   2.218468   0.000000
    16  H    2.613461   2.218503   2.958092   2.336188   1.096685
    17  H    3.710847   2.239695   2.399457   2.958128   1.093917
                   16         17
    16  H    0.000000
    17  H    1.773359   0.000000
 Stoichiometry    C7H10
 Framework group  C1[X(C7H10)]
 Deg. of freedom    45
 Full point group                 C1      NOp   1
 Largest Abelian subgroup         C1      NOp   1
 Largest concise Abelian subgroup C1      NOp   1
                         Standard orientation:                         
 ---------------------------------------------------------------------
 Center     Atomic      Atomic             Coordinates (Angstroms)
 Number     Number       Type             X           Y           Z
 ---------------------------------------------------------------------
      1          6           0       -0.044715   -1.134775    0.314144
      2          6           0       -1.292944   -0.669803   -0.463006
      3          6           0       -1.292973    0.669783   -0.462962
      4          6           0       -0.044756    1.134749    0.314230
      5          1           0       -0.077233   -2.158118    0.689031
      6          1           0       -1.968122   -1.331085   -0.989855
      7          1           0       -1.968166    1.331078   -0.989773
      8          1           0       -0.077309    2.158049    0.689230
      9          6           0        0.029646   -0.000053    1.390874
     10          1           0       -0.828114   -0.000084    2.066254
     11          1           0        0.973489   -0.000062    1.947376
     12          6           0        1.133004   -0.795899   -0.550809
     13          1           0        1.043020   -1.199709   -1.563492
     14          1           0        2.069261   -1.167986   -0.117570
     15          6           0        1.132939    0.795993   -0.550801
     16          1           0        2.069225    1.168202   -0.117738
     17          1           0        1.042746    1.199747   -1.563472
 ---------------------------------------------------------------------
 Rotational constants (GHZ):           3.9023566           3.4795417           3.0314940

 **********************************************************************

            Population analysis using the SCF Density.

 **********************************************************************

 Orbital symmetries:
       Occupied  (A) (A) (A) (A) (A) (A) (A) (A) (A) (A) (A) (A)
                 (A) (A) (A) (A) (A) (A) (A) (A) (A) (A) (A) (A)
                 (A) (A)
       Virtual   (A) (A) (A) (A) (A) (A) (A) (A) (A) (A) (A) (A)
                 (A) (A) (A) (A) (A) (A) (A) (A) (A) (A) (A) (A)
                 (A) (A) (A) (A) (A) (A) (A) (A) (A) (A) (A) (A)
                 (A) (A) (A) (A) (A) (A) (A) (A) (A) (A) (A) (A)
                 (A) (A) (A) (A) (A) (A) (A) (A) (A)
 The electronic state is 1-A.
 Alpha  occ. eigenvalues --  -10.12044 -10.11941 -10.11262 -10.11191 -10.11139
 Alpha  occ. eigenvalues --  -10.10963 -10.10897  -0.88295  -0.73833  -0.72177
 Alpha  occ. eigenvalues --   -0.68729  -0.57654  -0.55591  -0.51341  -0.50702
 Alpha  occ. eigenvalues --   -0.47208  -0.43624  -0.39535  -0.38500  -0.35348
 Alpha  occ. eigenvalues --   -0.34190  -0.33689  -0.32357  -0.32149  -0.29142
 Alpha  occ. eigenvalues --   -0.23506
 Alpha virt. eigenvalues --    0.03000   0.11831   0.13752   0.15918   0.17791
 Alpha virt. eigenvalues --    0.19126   0.19282   0.19711   0.19920   0.20668
 Alpha virt. eigenvalues --    0.21193   0.21346   0.25442   0.25481   0.27314
 Alpha virt. eigenvalues --    0.28074   0.34400   0.36782   0.43234   0.69171
 Alpha virt. eigenvalues --    0.70908   0.73284   0.74244   0.75277   0.75336
 Alpha virt. eigenvalues --    0.75858   0.78239   0.78420   0.80321   0.80809
 Alpha virt. eigenvalues --    0.83564   0.87232   0.90467   0.93666   0.97208
 Alpha virt. eigenvalues --    1.01373   1.02754   1.03824   1.04145   1.06217
 Alpha virt. eigenvalues --    1.08153   1.08194   1.12446   1.12780   1.13966
 Alpha virt. eigenvalues --    1.20034   1.28494   1.36771   1.39057   1.45042
 Alpha virt. eigenvalues --    1.48508   1.94475   1.96995   2.06136   2.20669
 Alpha virt. eigenvalues --    2.43350   2.85868
          Condensed to atoms (all electrons):
               1          2          3          4          5          6
     1  C    5.652156   0.292838  -0.098496  -0.180184   0.398945  -0.033103
     2  C    0.292838   5.284628   0.519527  -0.098498  -0.030422   0.392438
     3  C   -0.098496   0.519527   5.284629   0.292849   0.003725  -0.037829
     4  C   -0.180184  -0.098498   0.292849   5.652152   0.004144   0.004648
     5  H    0.398945  -0.030422   0.003725   0.004144   0.514507  -0.001472
     6  H   -0.033103   0.392438  -0.037829   0.004648  -0.001472   0.500494
     7  H    0.004648  -0.037829   0.392438  -0.033103  -0.000051  -0.002391
     8  H    0.004144   0.003725  -0.030419   0.398945  -0.000049  -0.000051
     9  C    0.284744  -0.107542  -0.107542   0.284741  -0.023980   0.002729
    10  H   -0.033622   0.000962   0.000962  -0.033623  -0.000983  -0.000019
    11  H   -0.038991   0.004937   0.004937  -0.038990  -0.001312  -0.000036
    12  C    0.237649  -0.109516  -0.003097  -0.073772  -0.035330   0.000822
    13  H   -0.041676  -0.005198   0.001583   0.003124   0.000132   0.000795
    14  H   -0.042153   0.005408   0.000176   0.003420  -0.002636  -0.000041
    15  C   -0.073773  -0.003099  -0.109526   0.237644   0.003931  -0.000349
    16  H    0.003420   0.000176   0.005407  -0.042144  -0.000063   0.000007
    17  H    0.003123   0.001584  -0.005200  -0.041684  -0.000050  -0.000007
               7          8          9         10         11         12
     1  C    0.004648   0.004144   0.284744  -0.033622  -0.038991   0.237649
     2  C   -0.037829   0.003725  -0.107542   0.000962   0.004937  -0.109516
     3  C    0.392438  -0.030419  -0.107542   0.000962   0.004937  -0.003097
     4  C   -0.033103   0.398945   0.284741  -0.033623  -0.038990  -0.073772
     5  H   -0.000051  -0.000049  -0.023980  -0.000983  -0.001312  -0.035330
     6  H   -0.002391  -0.000051   0.002729  -0.000019  -0.000036   0.000822
     7  H    0.500493  -0.001472   0.002729  -0.000019  -0.000035  -0.000349
     8  H   -0.001472   0.514504  -0.023983  -0.000983  -0.001312   0.003931
     9  C    0.002729  -0.023983   5.467053   0.370611   0.367294  -0.125589
    10  H   -0.000019  -0.000983   0.370611   0.516924  -0.024031   0.005013
    11  H   -0.000035  -0.001312   0.367294  -0.024031   0.548423   0.000293
    12  C   -0.000349   0.003931  -0.125589   0.005013   0.000293   5.447731
    13  H   -0.000007  -0.000050   0.005835  -0.000100  -0.000013   0.377682
    14  H    0.000007  -0.000063   0.000346  -0.000083   0.000973   0.369410
    15  C    0.000822  -0.035328  -0.125573   0.005013   0.000292   0.292191
    16  H   -0.000041  -0.002636   0.000347  -0.000083   0.000972  -0.038038
    17  H    0.000795   0.000133   0.005836  -0.000100  -0.000013  -0.034668
              13         14         15         16         17
     1  C   -0.041676  -0.042153  -0.073773   0.003420   0.003123
     2  C   -0.005198   0.005408  -0.003099   0.000176   0.001584
     3  C    0.001583   0.000176  -0.109526   0.005407  -0.005200
     4  C    0.003124   0.003420   0.237644  -0.042144  -0.041684
     5  H    0.000132  -0.002636   0.003931  -0.000063  -0.000050
     6  H    0.000795  -0.000041  -0.000349   0.000007  -0.000007
     7  H   -0.000007   0.000007   0.000822  -0.000041   0.000795
     8  H   -0.000050  -0.000063  -0.035328  -0.002636   0.000133
     9  C    0.005835   0.000346  -0.125573   0.000347   0.005836
    10  H   -0.000100  -0.000083   0.005013  -0.000083  -0.000100
    11  H   -0.000013   0.000973   0.000292   0.000972  -0.000013
    12  C    0.377682   0.369410   0.292191  -0.038038  -0.034668
    13  H    0.532565  -0.028217  -0.034662   0.002322  -0.004249
    14  H   -0.028217   0.545729  -0.038044  -0.003883   0.002323
    15  C   -0.034662  -0.038044   5.447733   0.369415   0.377678
    16  H    0.002322  -0.003883   0.369415   0.545715  -0.028218
    17  H   -0.004249   0.002323   0.377678  -0.028218   0.532571
 Mulliken charges:
               1
     1  C   -0.339669
     2  C   -0.114119
     3  C   -0.114124
     4  C   -0.339668
     5  H    0.170964
     6  H    0.173365
     7  H    0.173366
     8  H    0.170964
     9  C   -0.278058
    10  H    0.194165
    11  H    0.176612
    12  C   -0.314363
    13  H    0.190133
    14  H    0.187329
    15  C   -0.314366
    16  H    0.187325
    17  H    0.190144
 Sum of Mulliken charges =  -0.00000
 Mulliken charges with hydrogens summed into heavy atoms:
               1
     1  C   -0.168705
     2  C    0.059246
     3  C    0.059242
     4  C   -0.168704
     9  C    0.092718
    12  C    0.063099
    15  C    0.063104
 Electronic spatial extent (au):  <R**2>=            586.7929
 Charge=             -0.0000 electrons
 Dipole moment (field-independent basis, Debye):
    X=              0.2398    Y=              0.0000    Z=             -0.0980  Tot=              0.2591
 Quadrupole moment (field-independent basis, Debye-Ang):
   XX=            -43.5569   YY=            -41.9669   ZZ=            -43.6715
   XY=             -0.0001   XZ=              1.4296   YZ=              0.0002
 Traceless Quadrupole moment (field-independent basis, Debye-Ang):
   XX=             -0.4918   YY=              1.0982   ZZ=             -0.6064
   XY=             -0.0001   XZ=              1.4296   YZ=              0.0002
 Octapole moment (field-independent basis, Debye-Ang**2):
  XXX=              1.5270  YYY=             -0.0002  ZZZ=              0.0848  XYY=             -2.1742
  XXY=              0.0004  XXZ=             -1.8010  XZZ=             -0.4418  YZZ=             -0.0001
  YYZ=             -0.6371  XYZ=              0.0000
 Hexadecapole moment (field-independent basis, Debye-Ang**3):
 XXXX=           -314.7747 YYYY=           -260.4611 ZZZZ=           -211.7727 XXXY=              0.0005
 XXXZ=             11.6716 YYYX=              0.0000 YYYZ=              0.0010 ZZZX=             -1.5525
 ZZZY=              0.0007 XXYY=            -93.2168 XXZZ=            -84.9797 YYZZ=            -78.4615
 XXYZ=             -0.0000 YYXZ=              3.9716 ZZXY=             -0.0004
 N-N= 3.082700174753D+02 E-N=-1.244195073989D+03  KE= 2.691264928973D+02
 1\1\GINC-TACHAS\FOpt\RB3LYP\3-21G\C7H10\LEOS\20-Oct-2019\0\\# opt=modr
 edundant b3lyp/3-21g geom=connectivity\\Title Card Required\\0,1\C,-0.
 150869197,-1.135093438,0.3120899632\C,-1.1933091251,-0.6695826989,-0.7
 24662478\C,-1.1937172185,0.6700023835,-0.7235582611\C,-0.1515554265,1.
 1344289224,0.3139743239\H,-0.2662938892,-2.1587537944,0.6693377097\H,-
 1.7330585741,-1.3304831677,-1.3899510128\H,-1.7338547859,1.3316785056,
 -1.3877596532\H,-0.2676039291,2.1574114135,0.6729552627\C,-0.320019639
 8,-0.0012689958,1.3790014654\H,-1.3073206181,-0.0019431657,1.844969424
 2\H,0.4750976961,-0.0016597006,2.132872733\C,1.1906435291,-0.795385834
 8,-0.266652089\H,1.3300124095,-1.1983548565,-1.2740645802\H,2.00609538
 06,-1.1677515335,0.3650947845\C,1.19013906,0.7965047835,-0.2653901503\
 H,2.0054538156,1.1684355929,0.3667857858\H,1.3290787923,1.2011007847,-
 1.2721929978\\Version=ES64L-G16RevB.01\State=1-A\HF=-271.2485377\RMSD=
 5.823e-09\RMSF=9.898e-03\Dipole=0.1005992,0.0000457,-0.0164414\Quadrup
 ole=-0.8342048,0.8164958,0.017709,-0.0012959,0.9746779,0.0010109\PG=C0
 1 [X(C7H10)]\\@


 REVOLUTIONS HAVE NEVER LIGHTENED THE BURDEN OF TYRANNY:
 THEY HAVE MERELY SHIFTED IT TO OTHER SHOULDERS.
                                   -- G. B. SHAW (1903)
 Job cpu time:       0 days  0 hours  1 minutes 50.6 seconds.
 Elapsed time:       0 days  0 hours  0 minutes 55.6 seconds.
 File lengths (MBytes):  RWF=     10 Int=      0 D2E=      0 Chk=      2 Scr=      1
 Normal termination of Gaussian 16 at Sun Oct 20 19:30:18 2019.
