 Entering Gaussian System, Link 0=g16
 Input=/home/leos/jsmolpage/PDB/Ciclo/C1.7.com
 Output=/home/leos/jsmolpage/PDB/Ciclo/C1.7.log
 Initial command:
 /opt/g16/l1.exe "/tmp/Gau-8167.inp" -scrdir="/tmp/"
 Entering Link 1 = /opt/g16/l1.exe PID=      8170.
  
 Copyright (c) 1988-2017, Gaussian, Inc.  All Rights Reserved.
  
 This is part of the Gaussian(R) 16 program.  It is based on
 the Gaussian(R) 09 system (copyright 2009, Gaussian, Inc.),
 the Gaussian(R) 03 system (copyright 2003, Gaussian, Inc.),
 the Gaussian(R) 98 system (copyright 1998, Gaussian, Inc.),
 the Gaussian(R) 94 system (copyright 1995, Gaussian, Inc.),
 the Gaussian 92(TM) system (copyright 1992, Gaussian, Inc.),
 the Gaussian 90(TM) system (copyright 1990, Gaussian, Inc.),
 the Gaussian 88(TM) system (copyright 1988, Gaussian, Inc.),
 the Gaussian 86(TM) system (copyright 1986, Carnegie Mellon
 University), and the Gaussian 82(TM) system (copyright 1983,
 Carnegie Mellon University). Gaussian is a federally registered
 trademark of Gaussian, Inc.
  
 This software contains proprietary and confidential information,
 including trade secrets, belonging to Gaussian, Inc.
  
 This software is provided under written license and may be
 used, copied, transmitted, or stored only in accord with that
 written license.
  
 The following legend is applicable only to US Government
 contracts under FAR:
  
                    RESTRICTED RIGHTS LEGEND
  
 Use, reproduction and disclosure by the US Government is
 subject to restrictions as set forth in subparagraphs (a)
 and (c) of the Commercial Computer Software - Restricted
 Rights clause in FAR 52.227-19.
  
 Gaussian, Inc.
 340 Quinnipiac St., Bldg. 40, Wallingford CT 06492
  
  
 ---------------------------------------------------------------
 Warning -- This program may not be used in any manner that
 competes with the business of Gaussian, Inc. or will provide
 assistance to any competitor of Gaussian, Inc.  The licensee
 of this program is prohibited from giving any competitor of
 Gaussian, Inc. access to this program.  By using this program,
 the user acknowledges that Gaussian, Inc. is engaged in the
 business of creating and licensing software in the field of
 computational chemistry and represents and warrants to the
 licensee that it is not a competitor of Gaussian, Inc. and that
 it will not use this program in any manner prohibited above.
 ---------------------------------------------------------------
  

 Cite this work as:
 Gaussian 16, Revision B.01,
 M. J. Frisch, G. W. Trucks, H. B. Schlegel, G. E. Scuseria, 
 M. A. Robb, J. R. Cheeseman, G. Scalmani, V. Barone, 
 G. A. Petersson, H. Nakatsuji, X. Li, M. Caricato, A. V. Marenich, 
 J. Bloino, B. G. Janesko, R. Gomperts, B. Mennucci, H. P. Hratchian, 
 J. V. Ortiz, A. F. Izmaylov, J. L. Sonnenberg, D. Williams-Young, 
 F. Ding, F. Lipparini, F. Egidi, J. Goings, B. Peng, A. Petrone, 
 T. Henderson, D. Ranasinghe, V. G. Zakrzewski, J. Gao, N. Rega, 
 G. Zheng, W. Liang, M. Hada, M. Ehara, K. Toyota, R. Fukuda, 
 J. Hasegawa, M. Ishida, T. Nakajima, Y. Honda, O. Kitao, H. Nakai, 
 T. Vreven, K. Throssell, J. A. Montgomery, Jr., J. E. Peralta, 
 F. Ogliaro, M. J. Bearpark, J. J. Heyd, E. N. Brothers, K. N. Kudin, 
 V. N. Staroverov, T. A. Keith, R. Kobayashi, J. Normand, 
 K. Raghavachari, A. P. Rendell, J. C. Burant, S. S. Iyengar, 
 J. Tomasi, M. Cossi, J. M. Millam, M. Klene, C. Adamo, R. Cammi, 
 J. W. Ochterski, R. L. Martin, K. Morokuma, O. Farkas, 
 J. B. Foresman, and D. J. Fox, Gaussian, Inc., Wallingford CT, 2016.
 
 ******************************************
 Gaussian 16:  ES64L-G16RevB.01 20-Dec-2017
                20-Oct-2019 
 ******************************************
 %nprocshared=2
 Will use up to    2 processors via shared memory.
 %mem=6GB
 %chk=C3.chk
 ------------------------------------------------
 # opt=modredundant b3lyp/3-21g geom=connectivity
 ------------------------------------------------
 1/18=120,19=15,26=3,38=1,57=2/1,3;
 2/9=110,12=2,17=6,18=5,40=1/2;
 3/5=5,11=2,25=1,30=1,71=1,74=-5/1,2,3;
 4//1;
 5/5=2,38=5/2;
 6/7=2,8=2,9=2,10=2,28=1/1;
 7//1,2,3,16;
 1/18=20,19=15,26=3/3(2);
 2/9=110/2;
 99//99;
 2/9=110/2;
 3/5=5,11=2,25=1,30=1,71=1,74=-5/1,2,3;
 4/5=5,16=3,69=1/1;
 5/5=2,38=5/2;
 7//1,2,3,16;
 1/18=20,19=15,26=3/3(-5);
 2/9=110/2;
 6/7=2,8=2,9=2,10=2,19=2,28=1/1;
 99/9=1/99;
 -------------------
 Title Card Required
 -------------------
 Symbolic Z-matrix:
 Charge =  0 Multiplicity = 1
 C                    -0.32533  -1.15733   0.36566 
 C                    -1.20765  -0.68248  -0.71237 
 C                    -1.20798   0.6836   -0.71082 
 C                    -0.3258    1.15636   0.36828 
 H                    -0.33726  -2.19176   0.6891 
 H                    -1.66137  -1.32767  -1.45298 
 H                    -1.66194   1.33026  -1.45001 
 H                    -0.33807   2.18998   0.69428 
 C                    -0.31758  -0.00165   1.37616 
 H                    -1.23498  -0.00243   1.97647 
 H                     0.55757  -0.00218   2.03378 
 C                     1.21045  -0.79912  -0.26923 
 H                     1.46538  -1.23269  -1.3486 
 H                     2.14182  -1.21287   0.33123 
 C                     1.2095    0.80027  -0.26894 
 H                     2.14253   1.21624   0.32941 
 H                     1.46093   1.23301  -1.34825 
 
 Add virtual bond connecting atoms C12        and C1         Dist= 3.21D+00.
 Add virtual bond connecting atoms C15        and C4         Dist= 3.21D+00.
 The following ModRedundant input section has been read:
 B       4      15 F                                                           
 B       1      12 F                                                           
 

 GradGradGradGradGradGradGradGradGradGradGradGradGradGradGradGradGradGrad
 Berny optimization.
 Initialization pass.
                           ----------------------------
                           !    Initial Parameters    !
                           ! (Angstroms and Degrees)  !
 --------------------------                            --------------------------
 ! Name  Definition              Value          Derivative Info.                !
 --------------------------------------------------------------------------------
 ! R1    R(1,2)                  1.4718         estimate D2E/DX2                !
 ! R2    R(1,5)                  1.0839         estimate D2E/DX2                !
 ! R3    R(1,9)                  1.5352         estimate D2E/DX2                !
 ! R4    R(1,12)                 1.7            Frozen                          !
 ! R5    R(2,3)                  1.3661         estimate D2E/DX2                !
 ! R6    R(2,6)                  1.082          estimate D2E/DX2                !
 ! R7    R(3,4)                  1.4718         estimate D2E/DX2                !
 ! R8    R(3,7)                  1.082          estimate D2E/DX2                !
 ! R9    R(4,8)                  1.0839         estimate D2E/DX2                !
 ! R10   R(4,9)                  1.5352         estimate D2E/DX2                !
 ! R11   R(4,15)                 1.7            Frozen                          !
 ! R12   R(9,10)                 1.0963         estimate D2E/DX2                !
 ! R13   R(9,11)                 1.0947         estimate D2E/DX2                !
 ! R14   R(12,13)                1.1908         estimate D2E/DX2                !
 ! R15   R(12,14)                1.1829         estimate D2E/DX2                !
 ! R16   R(12,15)                1.5994         estimate D2E/DX2                !
 ! R17   R(15,16)                1.1839         estimate D2E/DX2                !
 ! R18   R(15,17)                1.1897         estimate D2E/DX2                !
 ! A1    A(2,1,5)              121.3246         estimate D2E/DX2                !
 ! A2    A(2,1,9)              104.0207         estimate D2E/DX2                !
 ! A3    A(2,1,12)             101.5397         estimate D2E/DX2                !
 ! A4    A(5,1,9)              121.4728         estimate D2E/DX2                !
 ! A5    A(5,1,12)             108.8138         estimate D2E/DX2                !
 ! A6    A(9,1,12)              94.7405         estimate D2E/DX2                !
 ! A7    A(1,2,3)              108.781          estimate D2E/DX2                !
 ! A8    A(1,2,6)              124.0824         estimate D2E/DX2                !
 ! A9    A(3,2,6)              126.6547         estimate D2E/DX2                !
 ! A10   A(2,3,4)              108.7778         estimate D2E/DX2                !
 ! A11   A(2,3,7)              126.6555         estimate D2E/DX2                !
 ! A12   A(4,3,7)              124.0837         estimate D2E/DX2                !
 ! A13   A(3,4,8)              121.3356         estimate D2E/DX2                !
 ! A14   A(3,4,9)              104.0198         estimate D2E/DX2                !
 ! A15   A(3,4,15)             101.4908         estimate D2E/DX2                !
 ! A16   A(8,4,9)              121.4615         estimate D2E/DX2                !
 ! A17   A(8,4,15)             108.8274         estimate D2E/DX2                !
 ! A18   A(9,4,15)              94.7756         estimate D2E/DX2                !
 ! A19   A(1,9,4)               97.7978         estimate D2E/DX2                !
 ! A20   A(1,9,10)             110.8335         estimate D2E/DX2                !
 ! A21   A(1,9,11)             113.5212         estimate D2E/DX2                !
 ! A22   A(4,9,10)             110.8259         estimate D2E/DX2                !
 ! A23   A(4,9,11)             113.5179         estimate D2E/DX2                !
 ! A24   A(10,9,11)            109.8784         estimate D2E/DX2                !
 ! A25   A(1,12,13)            117.0777         estimate D2E/DX2                !
 ! A26   A(1,12,14)            116.6173         estimate D2E/DX2                !
 ! A27   A(1,12,15)            102.129          estimate D2E/DX2                !
 ! A28   A(13,12,14)            99.4512         estimate D2E/DX2                !
 ! A29   A(13,12,15)           111.3699         estimate D2E/DX2                !
 ! A30   A(14,12,15)           110.4968         estimate D2E/DX2                !
 ! A31   A(4,15,12)            102.1262         estimate D2E/DX2                !
 ! A32   A(4,15,16)            116.6603         estimate D2E/DX2                !
 ! A33   A(4,15,17)            117.0476         estimate D2E/DX2                !
 ! A34   A(12,15,16)           110.5475         estimate D2E/DX2                !
 ! A35   A(12,15,17)           111.3124         estimate D2E/DX2                !
 ! A36   A(16,15,17)            99.4483         estimate D2E/DX2                !
 ! D1    D(5,1,2,3)            166.5759         estimate D2E/DX2                !
 ! D2    D(5,1,2,6)            -20.9339         estimate D2E/DX2                !
 ! D3    D(9,1,2,3)             25.1388         estimate D2E/DX2                !
 ! D4    D(9,1,2,6)           -162.371          estimate D2E/DX2                !
 ! D5    D(12,1,2,3)           -72.7888         estimate D2E/DX2                !
 ! D6    D(12,1,2,6)            99.7014         estimate D2E/DX2                !
 ! D7    D(2,1,9,4)            -37.7231         estimate D2E/DX2                !
 ! D8    D(2,1,9,10)            78.1298         estimate D2E/DX2                !
 ! D9    D(2,1,9,11)          -157.6478         estimate D2E/DX2                !
 ! D10   D(5,1,9,4)           -179.0879         estimate D2E/DX2                !
 ! D11   D(5,1,9,10)           -63.235          estimate D2E/DX2                !
 ! D12   D(5,1,9,11)            60.9874         estimate D2E/DX2                !
 ! D13   D(12,1,9,4)            65.433          estimate D2E/DX2                !
 ! D14   D(12,1,9,10)         -178.7141         estimate D2E/DX2                !
 ! D15   D(12,1,9,11)          -54.4917         estimate D2E/DX2                !
 ! D16   D(2,1,12,13)          -54.2922         estimate D2E/DX2                !
 ! D17   D(2,1,12,14)         -171.8398         estimate D2E/DX2                !
 ! D18   D(2,1,12,15)           67.6091         estimate D2E/DX2                !
 ! D19   D(5,1,12,13)           74.7669         estimate D2E/DX2                !
 ! D20   D(5,1,12,14)          -42.7807         estimate D2E/DX2                !
 ! D21   D(5,1,12,15)         -163.3318         estimate D2E/DX2                !
 ! D22   D(9,1,12,13)         -159.6623         estimate D2E/DX2                !
 ! D23   D(9,1,12,14)           82.7902         estimate D2E/DX2                !
 ! D24   D(9,1,12,15)          -37.7609         estimate D2E/DX2                !
 ! D25   D(1,2,3,4)              0.0029         estimate D2E/DX2                !
 ! D26   D(1,2,3,7)            172.2397         estimate D2E/DX2                !
 ! D27   D(6,2,3,4)           -172.2426         estimate D2E/DX2                !
 ! D28   D(6,2,3,7)             -0.0057         estimate D2E/DX2                !
 ! D29   D(2,3,4,8)           -166.5729         estimate D2E/DX2                !
 ! D30   D(2,3,4,9)            -25.1429         estimate D2E/DX2                !
 ! D31   D(2,3,4,15)            72.8079         estimate D2E/DX2                !
 ! D32   D(7,3,4,8)             20.9453         estimate D2E/DX2                !
 ! D33   D(7,3,4,9)            162.3753         estimate D2E/DX2                !
 ! D34   D(7,3,4,15)           -99.6738         estimate D2E/DX2                !
 ! D35   D(3,4,9,1)             37.7247         estimate D2E/DX2                !
 ! D36   D(3,4,9,10)           -78.1343         estimate D2E/DX2                !
 ! D37   D(3,4,9,11)           157.6518         estimate D2E/DX2                !
 ! D38   D(8,4,9,1)            179.0933         estimate D2E/DX2                !
 ! D39   D(8,4,9,10)            63.2343         estimate D2E/DX2                !
 ! D40   D(8,4,9,11)           -60.9796         estimate D2E/DX2                !
 ! D41   D(15,4,9,1)           -65.3901         estimate D2E/DX2                !
 ! D42   D(15,4,9,10)          178.7509         estimate D2E/DX2                !
 ! D43   D(15,4,9,11)           54.537          estimate D2E/DX2                !
 ! D44   D(3,4,15,12)          -67.7462         estimate D2E/DX2                !
 ! D45   D(3,4,15,16)          171.618          estimate D2E/DX2                !
 ! D46   D(3,4,15,17)           54.0636         estimate D2E/DX2                !
 ! D47   D(8,4,15,12)          163.2038         estimate D2E/DX2                !
 ! D48   D(8,4,15,16)           42.568          estimate D2E/DX2                !
 ! D49   D(8,4,15,17)          -74.9864         estimate D2E/DX2                !
 ! D50   D(9,4,15,12)           37.6241         estimate D2E/DX2                !
 ! D51   D(9,4,15,16)          -83.0117         estimate D2E/DX2                !
 ! D52   D(9,4,15,17)          159.4338         estimate D2E/DX2                !
 ! D53   D(1,12,15,4)            0.082          estimate D2E/DX2                !
 ! D54   D(1,12,15,16)         124.8781         estimate D2E/DX2                !
 ! D55   D(1,12,15,17)        -125.585          estimate D2E/DX2                !
 ! D56   D(13,12,15,4)         125.8185         estimate D2E/DX2                !
 ! D57   D(13,12,15,16)       -109.3854         estimate D2E/DX2                !
 ! D58   D(13,12,15,17)          0.1514         estimate D2E/DX2                !
 ! D59   D(14,12,15,4)        -124.6382         estimate D2E/DX2                !
 ! D60   D(14,12,15,16)          0.1579         estimate D2E/DX2                !
 ! D61   D(14,12,15,17)        109.6948         estimate D2E/DX2                !
 --------------------------------------------------------------------------------
 Trust Radius=3.00D-01 FncErr=1.00D-07 GrdErr=1.00D-06 EigMax=2.50D+02 EigMin=1.00D-04
 Number of steps in this run=    102 maximum allowed number of steps=    102.
 GradGradGradGradGradGradGradGradGradGradGradGradGradGradGradGradGradGrad

                          Input orientation:                          
 ---------------------------------------------------------------------
 Center     Atomic      Atomic             Coordinates (Angstroms)
 Number     Number       Type             X           Y           Z
 ---------------------------------------------------------------------
      1          6           0       -0.325325   -1.157333    0.365664
      2          6           0       -1.207654   -0.682481   -0.712367
      3          6           0       -1.207984    0.683595   -0.710819
      4          6           0       -0.325795    1.156361    0.368284
      5          1           0       -0.337263   -2.191759    0.689097
      6          1           0       -1.661374   -1.327673   -1.452977
      7          1           0       -1.661939    1.330258   -1.450006
      8          1           0       -0.338067    2.189975    0.694278
      9          6           0       -0.317579   -0.001646    1.376164
     10          1           0       -1.234975   -0.002426    1.976468
     11          1           0        0.557570   -0.002180    2.033785
     12          6           0        1.210446   -0.799121   -0.269230
     13          1           0        1.465375   -1.232690   -1.348600
     14          1           0        2.141818   -1.212868    0.331230
     15          6           0        1.209503    0.800270   -0.268943
     16          1           0        2.142530    1.216240    0.329413
     17          1           0        1.460933    1.233013   -1.348252
 ---------------------------------------------------------------------
                    Distance matrix (angstroms):
                    1          2          3          4          5
     1  C    0.000000
     2  C    1.471781   0.000000
     3  C    2.308012   1.366077   0.000000
     4  C    2.313696   2.307991   1.471811   0.000000
     5  H    1.083877   2.235979   3.314450   3.363474   0.000000
     6  H    2.263073   1.081960   2.191246   3.357259   2.662404
     7  H    3.357276   2.191256   1.081964   2.263117   4.328410
     8  H    3.363424   3.314489   2.236120   1.083873   4.381737
     9  C    1.535182   2.370175   2.370206   1.535210   2.295440
    10  H    2.180817   2.773636   2.773601   2.180746   2.693769
    11  H    2.212806   3.334693   3.334714   2.212791   2.720876
    12  C    1.700000   2.461135   2.870932   2.567172   2.291994
    13  H    2.480118   2.802250   3.350487   3.444350   2.884706
    14  H    2.468008   3.548150   3.987933   3.421072   2.689264
    15  C    2.567223   2.870161   2.460307   1.700000   3.501794
    16  H    3.424248   3.989258   3.548484   2.469357   4.230036
    17  H    3.441218   3.345867   2.798446   2.478864   4.371883
                    6          7          8          9         10
     6  H    0.000000
     7  H    2.657933   0.000000
     8  H    4.328475   2.662650   0.000000
     9  C    3.401201   3.401251   2.295341   0.000000
    10  H    3.701242   3.701225   2.693525   1.096349   0.000000
    11  H    4.340294   4.340324   2.720660   1.094692   1.793461
    12  C    3.150869   3.765513   3.501562   2.382887   3.414377
    13  H    3.129932   4.044636   4.374973   3.481197   4.456626
    14  H    4.202481   4.910077   4.226225   2.933868   3.946481
    15  C    3.764573   3.149758   2.292171   2.383574   3.414918
    16  H    4.911018   4.201585   2.689730   2.937868   3.950377
    17  H    4.039416   3.126042   2.885153   3.479933   4.455109
                   11         12         13         14         15
    11  H    0.000000
    12  C    2.522943   0.000000
    13  H    3.711980   1.190803   0.000000
    14  H    2.621889   1.182874   1.811021   0.000000
    15  C    2.524183   1.599391   2.316043   2.298291   0.000000
    16  H    2.627076   2.299746   3.044918   2.429109   1.183892
    17  H    3.712134   2.314433   2.465707   3.044109   1.189702
                   16         17
    16  H    0.000000
    17  H    1.810916   0.000000
 Stoichiometry    C7H10
 Framework group  C1[X(C7H10)]
 Deg. of freedom    45
 Full point group                 C1      NOp   1
 Largest Abelian subgroup         C1      NOp   1
 Largest concise Abelian subgroup C1      NOp   1
                         Standard orientation:                         
 ---------------------------------------------------------------------
 Center     Atomic      Atomic             Coordinates (Angstroms)
 Number     Number       Type             X           Y           Z
 ---------------------------------------------------------------------
      1          6           0       -0.212935   -1.157259    0.373131
      2          6           0       -1.235541   -0.683250   -0.573300
      3          6           0       -1.236324    0.682826   -0.572215
      4          6           0       -0.214172    1.156435    0.374954
      5          1           0       -0.179714   -2.191553    0.695500
      6          1           0       -1.786609   -1.328954   -1.244141
      7          1           0       -1.788061    1.328977   -1.242081
      8          1           0       -0.181942    2.190182    0.699158
      9          6           0       -0.066677   -0.001139    1.372519
     10          1           0       -0.892667   -0.002063    2.093435
     11          1           0        0.890693   -0.001013    1.903362
     12          6           0        1.220602   -0.798649   -0.467329
     13          1           0        1.324678   -1.232567   -1.571365
     14          1           0        2.225989   -1.211736   -0.000695
     15          6           0        1.218924    0.800741   -0.467493
     16          1           0        2.225255    1.217371   -0.003471
     17          1           0        1.319120    1.233134   -1.571299
 ---------------------------------------------------------------------
 Rotational constants (GHZ):           3.7671306           3.3414500           2.9218890
 Standard basis: 3-21G (6D, 7F)
 There are    83 symmetry adapted cartesian basis functions of A   symmetry.
 There are    83 symmetry adapted basis functions of A   symmetry.
    83 basis functions,   135 primitive gaussians,    83 cartesian basis functions
    26 alpha electrons       26 beta electrons
       nuclear repulsion energy       302.4299919896 Hartrees.
 NAtoms=   17 NActive=   17 NUniq=   17 SFac= 1.00D+00 NAtFMM=   60 NAOKFM=F Big=F
 Integral buffers will be    131072 words long.
 Raffenetti 2 integral format.
 Two-electron integral symmetry is turned on.
 One-electron integrals computed using PRISM.
 NBasis=    83 RedAO= T EigKep=  4.41D-03  NBF=    83
 NBsUse=    83 1.00D-06 EigRej= -1.00D+00 NBFU=    83
 ExpMin= 1.83D-01 ExpMax= 1.72D+02 ExpMxC= 1.72D+02 IAcc=3 IRadAn=         5 AccDes= 0.00D+00
 Harris functional with IExCor=  402 and IRadAn=       5 diagonalized for initial guess.
 HarFok:  IExCor=  402 AccDes= 0.00D+00 IRadAn=         5 IDoV= 1 UseB2=F ITyADJ=14
 ICtDFT=  3500011 ScaDFX=  1.000000  1.000000  1.000000  1.000000
 FoFCou: FMM=F IPFlag=           0 FMFlag=      100000 FMFlg1=           0
         NFxFlg=           0 DoJE=T BraDBF=F KetDBF=T FulRan=T
         wScrn=  0.000000 ICntrl=       500 IOpCl=  0 I1Cent=   200000004 NGrid=           0
         NMat0=    1 NMatS0=      1 NMatT0=    0 NMatD0=    1 NMtDS0=    0 NMtDT0=    0
 Petite list used in FoFCou.
 Keep R1 ints in memory in canonical form, NReq=7891700.
 Requested convergence on RMS density matrix=1.00D-08 within 128 cycles.
 Requested convergence on MAX density matrix=1.00D-06.
 Requested convergence on             energy=1.00D-06.
 No special actions if energy rises.
 Integral accuracy reduced to 1.0D-05 until final iterations.
 EnCoef did    11 forward-backward iterations
 Initial convergence to 1.0D-05 achieved.  Increase integral accuracy.
 SCF Done:  E(RB3LYP) =  -271.209774577     A.U. after   13 cycles
            NFock= 13  Conv=0.51D-08     -V/T= 2.0106

 **********************************************************************

            Population analysis using the SCF Density.

 **********************************************************************

 Orbital symmetries:
       Occupied  (A) (A) (A) (A) (A) (A) (A) (A) (A) (A) (A) (A)
                 (A) (A) (A) (A) (A) (A) (A) (A) (A) (A) (A) (A)
                 (A) (A)
       Virtual   (A) (A) (A) (A) (A) (A) (A) (A) (A) (A) (A) (A)
                 (A) (A) (A) (A) (A) (A) (A) (A) (A) (A) (A) (A)
                 (A) (A) (A) (A) (A) (A) (A) (A) (A) (A) (A) (A)
                 (A) (A) (A) (A) (A) (A) (A) (A) (A) (A) (A) (A)
                 (A) (A) (A) (A) (A) (A) (A) (A) (A)
 The electronic state is 1-A.
 Alpha  occ. eigenvalues --  -10.13597 -10.13532 -10.13359 -10.13266 -10.11741
 Alpha  occ. eigenvalues --  -10.11588 -10.11466  -0.87670  -0.72381  -0.71051
 Alpha  occ. eigenvalues --   -0.68702  -0.56223  -0.55757  -0.51555  -0.51356
 Alpha  occ. eigenvalues --   -0.46236  -0.41110  -0.38762  -0.37996  -0.35539
 Alpha  occ. eigenvalues --   -0.35240  -0.33700  -0.31669  -0.31109  -0.29537
 Alpha  occ. eigenvalues --   -0.22155
 Alpha virt. eigenvalues --    0.02036   0.11132   0.11923   0.13086   0.14829
 Alpha virt. eigenvalues --    0.16949   0.18804   0.19123   0.19416   0.19846
 Alpha virt. eigenvalues --    0.20631   0.20972   0.22943   0.24091   0.25127
 Alpha virt. eigenvalues --    0.26938   0.29975   0.39596   0.42277   0.69614
 Alpha virt. eigenvalues --    0.70627   0.71062   0.72809   0.74710   0.74736
 Alpha virt. eigenvalues --    0.75104   0.76430   0.77370   0.80984   0.82559
 Alpha virt. eigenvalues --    0.84503   0.90128   0.92117   0.93755   0.97237
 Alpha virt. eigenvalues --    0.99624   1.00347   1.01511   1.02546   1.04374
 Alpha virt. eigenvalues --    1.05775   1.06723   1.10093   1.11469   1.12322
 Alpha virt. eigenvalues --    1.22766   1.25570   1.36294   1.36364   1.44825
 Alpha virt. eigenvalues --    1.46119   1.88011   1.92906   1.99881   2.18405
 Alpha virt. eigenvalues --    2.32604   2.68515
          Condensed to atoms (all electrons):
               1          2          3          4          5          6
     1  C    5.563405   0.283341  -0.097088  -0.153997   0.399396  -0.037226
     2  C    0.283341   5.261334   0.530369  -0.097131  -0.030325   0.393339
     3  C   -0.097088   0.530369   5.261498   0.283377   0.003830  -0.034612
     4  C   -0.153997  -0.097131   0.283377   5.563473   0.003684   0.004371
     5  H    0.399396  -0.030325   0.003830   0.003684   0.497153  -0.001623
     6  H   -0.037226   0.393339  -0.034612   0.004371  -0.001623   0.496145
     7  H    0.004371  -0.034611   0.393330  -0.037225  -0.000046  -0.002119
     8  H    0.003684   0.003829  -0.030294   0.399403  -0.000037  -0.000046
     9  C    0.279106  -0.108988  -0.109002   0.279050  -0.022429   0.003349
    10  H   -0.039762   0.002906   0.002898  -0.039776  -0.001639  -0.000077
    11  H   -0.038902   0.004815   0.004813  -0.038889  -0.001009  -0.000043
    12  C    0.258643  -0.097340  -0.011246  -0.058038  -0.028499   0.000372
    13  H   -0.022077  -0.003009   0.000655   0.002023   0.000211   0.000511
    14  H   -0.019846   0.002915   0.000362   0.002220  -0.000595  -0.000020
    15  C   -0.058057  -0.011304  -0.097580   0.258632   0.001894  -0.000276
    16  H    0.002223   0.000361   0.002910  -0.019781  -0.000023   0.000003
    17  H    0.002020   0.000662  -0.003014  -0.022158  -0.000024   0.000004
               7          8          9         10         11         12
     1  C    0.004371   0.003684   0.279106  -0.039762  -0.038902   0.258643
     2  C   -0.034611   0.003829  -0.108988   0.002906   0.004815  -0.097340
     3  C    0.393330  -0.030294  -0.109002   0.002898   0.004813  -0.011246
     4  C   -0.037225   0.399403   0.279050  -0.039776  -0.038889  -0.058038
     5  H   -0.000046  -0.000037  -0.022429  -0.001639  -0.001009  -0.028499
     6  H   -0.002119  -0.000046   0.003349  -0.000077  -0.000043   0.000372
     7  H    0.496139  -0.001623   0.003349  -0.000077  -0.000043  -0.000276
     8  H   -0.001623   0.497116  -0.022456  -0.001638  -0.001009   0.001893
     9  C    0.003349  -0.022456   5.458520   0.361791   0.378418  -0.110917
    10  H   -0.000077  -0.001638   0.361791   0.534355  -0.024242   0.005423
    11  H   -0.000043  -0.001009   0.378418  -0.024242   0.526553  -0.004118
    12  C   -0.000276   0.001893  -0.110917   0.005423  -0.004118   5.411018
    13  H    0.000004  -0.000023   0.003230  -0.000058   0.000106   0.358774
    14  H    0.000003  -0.000023  -0.000606  -0.000055   0.000743   0.349783
    15  C    0.000371  -0.028477  -0.110626   0.005416  -0.004115   0.288503
    16  H   -0.000020  -0.000594  -0.000590  -0.000054   0.000727  -0.035978
    17  H    0.000516   0.000212   0.003240  -0.000058   0.000106  -0.032888
              13         14         15         16         17
     1  C   -0.022077  -0.019846  -0.058057   0.002223   0.002020
     2  C   -0.003009   0.002915  -0.011304   0.000361   0.000662
     3  C    0.000655   0.000362  -0.097580   0.002910  -0.003014
     4  C    0.002023   0.002220   0.258632  -0.019781  -0.022158
     5  H    0.000211  -0.000595   0.001894  -0.000023  -0.000024
     6  H    0.000511  -0.000020  -0.000276   0.000003   0.000004
     7  H    0.000004   0.000003   0.000371  -0.000020   0.000516
     8  H   -0.000023  -0.000023  -0.028477  -0.000594   0.000212
     9  C    0.003230  -0.000606  -0.110626  -0.000590   0.003240
    10  H   -0.000058  -0.000055   0.005416  -0.000054  -0.000058
    11  H    0.000106   0.000743  -0.004115   0.000727   0.000106
    12  C    0.358774   0.349783   0.288503  -0.035978  -0.032888
    13  H    0.577003  -0.038866  -0.032744   0.002555  -0.005045
    14  H   -0.038866   0.583976  -0.036131  -0.003995   0.002567
    15  C   -0.032744  -0.036131   5.411079   0.349745   0.358803
    16  H    0.002555  -0.003995   0.349745   0.584232  -0.038861
    17  H   -0.005045   0.002567   0.358803  -0.038861   0.576650
 Mulliken charges:
               1
     1  C   -0.329233
     2  C   -0.101162
     3  C   -0.101204
     4  C   -0.329239
     5  H    0.180080
     6  H    0.177948
     7  H    0.177955
     8  H    0.180083
     9  C   -0.284440
    10  H    0.194646
    11  H    0.196088
    12  C   -0.295109
    13  H    0.156749
    14  H    0.157567
    15  C   -0.295133
    16  H    0.157139
    17  H    0.157266
 Sum of Mulliken charges =  -0.00000
 Mulliken charges with hydrogens summed into heavy atoms:
               1
     1  C   -0.149153
     2  C    0.076786
     3  C    0.076750
     4  C   -0.149156
     9  C    0.106294
    12  C    0.019206
    15  C    0.019273
 Electronic spatial extent (au):  <R**2>=            607.9260
 Charge=              0.0000 electrons
 Dipole moment (field-independent basis, Debye):
    X=              0.2047    Y=              0.0006    Z=              0.0342  Tot=              0.2076
 Quadrupole moment (field-independent basis, Debye-Ang):
   XX=            -44.4346   YY=            -41.9352   ZZ=            -43.4654
   XY=             -0.0028   XZ=              1.3729   YZ=              0.0012
 Traceless Quadrupole moment (field-independent basis, Debye-Ang):
   XX=             -1.1562   YY=              1.3432   ZZ=             -0.1870
   XY=             -0.0028   XZ=              1.3729   YZ=              0.0012
 Octapole moment (field-independent basis, Debye-Ang**2):
  XXX=              3.3711  YYY=             -0.0038  ZZZ=              0.3590  XYY=             -2.7090
  XXY=              0.0077  XXZ=             -2.4825  XZZ=             -1.3803  YZZ=              0.0001
  YYZ=             -0.2208  XYZ=             -0.0025
 Hexadecapole moment (field-independent basis, Debye-Ang**3):
 XXXX=           -338.1356 YYYY=           -266.1459 ZZZZ=           -219.6930 XXXY=             -0.0101
 XXXZ=              9.7307 YYYX=             -0.0094 YYYZ=              0.0166 ZZZX=              1.4294
 ZZZY=              0.0049 XXYY=            -98.7850 XXZZ=            -86.5091 YYZZ=            -80.2316
 XXYZ=             -0.0029 YYXZ=              4.1203 ZZXY=             -0.0020
 N-N= 3.024299919896D+02 E-N=-1.231806484841D+03  KE= 2.683669313394D+02
 Calling FoFJK, ICntrl=      2127 FMM=F ISym2X=0 I1Cent= 0 IOpClX= 0 NMat=1 NMatS=1 NMatT=0.
 ***** Axes restored to original set *****
 -------------------------------------------------------------------
 Center     Atomic                   Forces (Hartrees/Bohr)
 Number     Number              X              Y              Z
 -------------------------------------------------------------------
      1        6           0.065983834    0.000660085   -0.011278742
      2        6          -0.019471897    0.023814415   -0.012137500
      3        6          -0.019496988   -0.023801094   -0.012157549
      4        6           0.065937521   -0.000622370   -0.011356368
      5        1          -0.007079926    0.000138673    0.004250677
      6        1          -0.000078625    0.001165375   -0.000127850
      7        1          -0.000079840   -0.001164135   -0.000126211
      8        1          -0.007077378   -0.000145580    0.004226599
      9        6          -0.022644158   -0.000006767    0.024088100
     10        1          -0.001511678   -0.000001884    0.001616168
     11        1          -0.001796035   -0.000000924   -0.001100063
     12        6           0.038913681   -0.017143519   -0.023051442
     13        1          -0.023861625    0.016625844    0.038756889
     14        1          -0.041401278    0.014906430   -0.008624016
     15        6           0.039000779    0.017171710   -0.022822982
     16        1          -0.041665481   -0.015183831   -0.008670317
     17        1          -0.023670907   -0.016412430    0.038514606
 -------------------------------------------------------------------
 Cartesian Forces:  Max     0.065983834 RMS     0.022482067

 GradGradGradGradGradGradGradGradGradGradGradGradGradGradGradGradGradGrad
 Berny optimization.
 FormGI is forming the generalized inverse of G from B-inverse, IUseBI=4.
 Internal  Forces:  Max     0.046290819 RMS     0.010415656
 Search for a local minimum.
 Step number   1 out of a maximum of  102
 All quantities printed in internal units (Hartrees-Bohrs-Radians)
 Mixed Optimization -- RFO/linear search
 Second derivative matrix not updated -- first step.
 ITU=  0
     Eigenvalues ---    0.00428   0.01461   0.01546   0.01822   0.02012
     Eigenvalues ---    0.02124   0.03127   0.03651   0.03741   0.04753
     Eigenvalues ---    0.04910   0.05099   0.05263   0.05628   0.05930
     Eigenvalues ---    0.06596   0.06712   0.07030   0.07035   0.07575
     Eigenvalues ---    0.09242   0.10948   0.12836   0.13300   0.15619
     Eigenvalues ---    0.15824   0.17391   0.21858   0.25167   0.25349
     Eigenvalues ---    0.25349   0.25432   0.25879   0.25959   0.31107
     Eigenvalues ---    0.34089   0.34276   0.34733   0.35530   0.35530
     Eigenvalues ---    0.35758   0.35759   0.466141000.000001000.00000
     Eigenvalues --- 1000.000001000.000001000.000001000.000001000.00000
     Eigenvalues --- 1000.000001000.000001000.000001000.000001000.00000
     Eigenvalues --- 1000.000001000.000001000.000001000.000001000.00000
     Eigenvalues --- 1000.000001000.000001000.000001000.000001000.00000
     Eigenvalues --- 1000.000001000.000001000.000001000.000001000.00000
     Eigenvalues --- 1000.000001000.000001000.000001000.000001000.00000
     Eigenvalues --- 1000.000001000.000001000.000001000.000001000.00000
     Eigenvalues --- 1000.000001000.000001000.000001000.000001000.00000
     Eigenvalues --- 1000.000001000.000001000.000001000.000001000.00000
     Eigenvalues --- 1000.000001000.000001000.000001000.000001000.00000
     Eigenvalues --- 1000.000001000.000001000.000001000.000001000.00000
     Eigenvalues --- 1000.000001000.000001000.000001000.000001000.00000
     Eigenvalues --- 1000.000001000.000001000.000001000.000001000.00000
     Eigenvalues --- 1000.000001000.000001000.000001000.000001000.00000
 RFO step:  Lambda=-4.40707181D-02 EMin= 4.28110794D-03
 Linear search not attempted -- first point.
 Maximum step size (   0.300) exceeded in Quadratic search.
    -- Step size scaled by   0.804
 Iteration  1 RMS(Cart)=  0.02612862 RMS(Int)=  0.00125182
 Iteration  2 RMS(Cart)=  0.00120983 RMS(Int)=  0.00039123
 Iteration  3 RMS(Cart)=  0.00000158 RMS(Int)=  0.00039122
 Iteration  4 RMS(Cart)=  0.00000000 RMS(Int)=  0.00039122
 Iteration  1 RMS(Cart)=  0.00001889 RMS(Int)=  0.00000154
 Iteration  2 RMS(Cart)=  0.00000024 RMS(Int)=  0.00000155
 Variable       Old X    -DE/DX   Delta X   Delta X   Delta X     New X
                                 (Linear)    (Quad)   (Total)
    R1        2.78126   0.02182   0.00000   0.04409   0.04411   2.82537
    R2        2.04823   0.00121   0.00000   0.00244   0.00244   2.05067
    R3        2.90107   0.00494   0.00000   0.01767   0.01799   2.91906
    R4        3.21253  -0.02646   0.00000   0.00000  -0.00000   3.21253
    R5        2.58151  -0.02159   0.00000  -0.03048  -0.03041   2.55110
    R6        2.04461  -0.00058   0.00000  -0.00115  -0.00115   2.04346
    R7        2.78132   0.02180   0.00000   0.04406   0.04409   2.82541
    R8        2.04462  -0.00058   0.00000  -0.00115  -0.00115   2.04346
    R9        2.04822   0.00121   0.00000   0.00244   0.00244   2.05066
   R10        2.90113   0.00495   0.00000   0.01765   0.01797   2.91909
   R11        3.21253  -0.02644   0.00000   0.00000  -0.00000   3.21253
   R12        2.07180   0.00215   0.00000   0.00449   0.00449   2.07628
   R13        2.06867  -0.00210   0.00000  -0.00435  -0.00435   2.06432
   R14        2.25029  -0.04629   0.00000  -0.12500  -0.12500   2.12529
   R15        2.23531  -0.04219   0.00000  -0.11164  -0.11164   2.12367
   R16        3.02241  -0.01450   0.00000  -0.05106  -0.05156   2.97085
   R17        2.23723  -0.04255   0.00000  -0.11290  -0.11290   2.12433
   R18        2.24821  -0.04591   0.00000  -0.12363  -0.12363   2.12458
    A1        2.11751  -0.00152   0.00000  -0.01584  -0.01668   2.10083
    A2        1.81550   0.00117   0.00000  -0.01045  -0.01181   1.80369
    A3        1.77220  -0.00033   0.00000   0.01348   0.01380   1.78600
    A4        2.12010  -0.00461   0.00000  -0.02469  -0.02562   2.09448
    A5        1.89916   0.00349   0.00000   0.02147   0.02165   1.92081
    A6        1.65353   0.00403   0.00000   0.03921   0.03959   1.69312
    A7        1.89859  -0.00049   0.00000  -0.00622  -0.00647   1.89212
    A8        2.16565   0.00135   0.00000   0.00693   0.00703   2.17268
    A9        2.21054  -0.00112   0.00000  -0.00176  -0.00162   2.20892
   A10        1.89853  -0.00051   0.00000  -0.00625  -0.00650   1.89203
   A11        2.21056  -0.00111   0.00000  -0.00174  -0.00161   2.20895
   A12        2.16567   0.00135   0.00000   0.00693   0.00703   2.17270
   A13        2.11771  -0.00152   0.00000  -0.01584  -0.01668   2.10102
   A14        1.81549   0.00118   0.00000  -0.01044  -0.01181   1.80368
   A15        1.77135  -0.00032   0.00000   0.01357   0.01388   1.78523
   A16        2.11990  -0.00463   0.00000  -0.02472  -0.02565   2.09426
   A17        1.89940   0.00349   0.00000   0.02144   0.02163   1.92102
   A18        1.65415   0.00402   0.00000   0.03918   0.03956   1.69371
   A19        1.70689  -0.00924   0.00000  -0.03227  -0.03296   1.67393
   A20        1.93441   0.00550   0.00000   0.02326   0.02346   1.95787
   A21        1.98132   0.00008   0.00000  -0.00733  -0.00745   1.97387
   A22        1.93428   0.00549   0.00000   0.02325   0.02346   1.95773
   A23        1.98126   0.00009   0.00000  -0.00731  -0.00743   1.97383
   A24        1.91774  -0.00199   0.00000  -0.00044  -0.00051   1.91723
   A25        2.04339  -0.00656   0.00000  -0.04190  -0.04183   2.00157
   A26        2.03536  -0.00720   0.00000  -0.04704  -0.04699   1.98836
   A27        1.78249   0.00246   0.00000   0.00257   0.00235   1.78484
   A28        1.73575   0.00852   0.00000   0.06243   0.06136   1.79711
   A29        1.94377   0.00096   0.00000   0.01465   0.01458   1.95835
   A30        1.92853   0.00201   0.00000   0.01161   0.01102   1.93955
   A31        1.78244   0.00246   0.00000   0.00257   0.00236   1.78480
   A32        2.03611  -0.00719   0.00000  -0.04691  -0.04686   1.98924
   A33        2.04287  -0.00658   0.00000  -0.04207  -0.04200   2.00087
   A34        1.92942   0.00197   0.00000   0.01126   0.01065   1.94007
   A35        1.94277   0.00100   0.00000   0.01504   0.01497   1.95774
   A36        1.73570   0.00852   0.00000   0.06245   0.06138   1.79708
    D1        2.90730  -0.00100   0.00000  -0.02347  -0.02351   2.88379
    D2       -0.36537  -0.00313   0.00000  -0.03184  -0.03179  -0.39716
    D3        0.43876   0.00687   0.00000   0.04921   0.04905   0.48781
    D4       -2.83391   0.00474   0.00000   0.04084   0.04077  -2.79314
    D5       -1.27040   0.00241   0.00000   0.00644   0.00621  -1.26420
    D6        1.74012   0.00028   0.00000  -0.00193  -0.00207   1.73804
    D7       -0.65839  -0.00736   0.00000  -0.06853  -0.06792  -0.72631
    D8        1.36362  -0.00387   0.00000  -0.05041  -0.05028   1.31334
    D9       -2.75147  -0.00212   0.00000  -0.03827  -0.03809  -2.78957
   D10       -3.12567  -0.00098   0.00000  -0.00004  -0.00002  -3.12569
   D11       -1.10366   0.00251   0.00000   0.01808   0.01762  -1.08604
   D12        1.06443   0.00425   0.00000   0.03022   0.02981   1.09424
   D13        1.14202  -0.00642   0.00000  -0.04519  -0.04457   1.09745
   D14       -3.11915  -0.00293   0.00000  -0.02707  -0.02693   3.13711
   D15       -0.95106  -0.00118   0.00000  -0.01493  -0.01474  -0.96580
   D16       -0.94758   0.00060   0.00000   0.00521   0.00524  -0.94234
   D17       -2.99917   0.00019   0.00000  -0.00777  -0.00785  -3.00702
   D18        1.18000  -0.00013   0.00000   0.00161   0.00179   1.18179
   D19        1.30493   0.00049   0.00000   0.00614   0.00598   1.31091
   D20       -0.74666   0.00008   0.00000  -0.00683  -0.00710  -0.75377
   D21       -2.85068  -0.00024   0.00000   0.00255   0.00253  -2.84814
   D22       -2.78663  -0.00150   0.00000   0.00486   0.00540  -2.78123
   D23        1.44496  -0.00191   0.00000  -0.00811  -0.00768   1.43728
   D24       -0.65905  -0.00223   0.00000   0.00127   0.00196  -0.65710
   D25        0.00005   0.00001   0.00000   0.00008   0.00008   0.00013
   D26        3.00615  -0.00196   0.00000  -0.00785  -0.00771   2.99844
   D27       -3.00620   0.00197   0.00000   0.00791   0.00777  -2.99843
   D28       -0.00010  -0.00000   0.00000  -0.00002  -0.00002  -0.00012
   D29       -2.90724   0.00100   0.00000   0.02337   0.02341  -2.88383
   D30       -0.43883  -0.00688   0.00000  -0.04935  -0.04919  -0.48801
   D31        1.27074  -0.00242   0.00000  -0.00658  -0.00635   1.26439
   D32        0.36557   0.00314   0.00000   0.03184   0.03179   0.39736
   D33        2.83398  -0.00474   0.00000  -0.04087  -0.04081   2.79318
   D34       -1.73964  -0.00029   0.00000   0.00189   0.00203  -1.73760
   D35        0.65842   0.00737   0.00000   0.06859   0.06798   0.72640
   D36       -1.36370   0.00387   0.00000   0.05046   0.05033  -1.31337
   D37        2.75154   0.00213   0.00000   0.03831   0.03814   2.78968
   D38        3.12577   0.00099   0.00000   0.00009   0.00007   3.12584
   D39        1.10365  -0.00250   0.00000  -0.01804  -0.01758   1.08607
   D40       -1.06429  -0.00424   0.00000  -0.03018  -0.02977  -1.09407
   D41       -1.14127   0.00642   0.00000   0.04516   0.04454  -1.09673
   D42        3.11979   0.00292   0.00000   0.02704   0.02689  -3.13650
   D43        0.95185   0.00118   0.00000   0.01489   0.01470   0.96655
   D44       -1.18239   0.00012   0.00000  -0.00158  -0.00175  -1.18415
   D45        2.99530  -0.00015   0.00000   0.00824   0.00831   3.00361
   D46        0.94359  -0.00056   0.00000  -0.00472  -0.00476   0.93883
   D47        2.84844   0.00023   0.00000  -0.00253  -0.00251   2.84593
   D48        0.74295  -0.00004   0.00000   0.00729   0.00756   0.75051
   D49       -1.30876  -0.00045   0.00000  -0.00567  -0.00551  -1.31427
   D50        0.65666   0.00224   0.00000  -0.00124  -0.00192   0.65474
   D51       -1.44883   0.00196   0.00000   0.00858   0.00815  -1.44068
   D52        2.78265   0.00155   0.00000  -0.00438  -0.00492   2.77772
   D53        0.00143  -0.00000   0.00000  -0.00004  -0.00005   0.00139
   D54        2.17953  -0.00602   0.00000  -0.04837  -0.04875   2.13078
   D55       -2.19187   0.00582   0.00000   0.04077   0.04095  -2.15092
   D56        2.19595  -0.00581   0.00000  -0.04089  -0.04106   2.15489
   D57       -1.90914  -0.01184   0.00000  -0.08922  -0.08977  -1.99890
   D58        0.00264   0.00001   0.00000  -0.00007  -0.00007   0.00257
   D59       -2.17535   0.00603   0.00000   0.04823   0.04861  -2.12673
   D60        0.00276   0.00000   0.00000  -0.00010  -0.00010   0.00266
   D61        1.91453   0.01184   0.00000   0.08905   0.08960   2.00414
         Item               Value     Threshold  Converged?
 Maximum Force            0.046291     0.000450     NO 
 RMS     Force            0.009893     0.000300     NO 
 Maximum Displacement     0.079617     0.001800     NO 
 RMS     Displacement     0.026316     0.001200     NO 
 Predicted change in Energy=-2.448575D-02
 GradGradGradGradGradGradGradGradGradGradGradGradGradGradGradGradGradGrad

                          Input orientation:                          
 ---------------------------------------------------------------------
 Center     Atomic      Atomic             Coordinates (Angstroms)
 Number     Number       Type             X           Y           Z
 ---------------------------------------------------------------------
      1          6           0       -0.283193   -1.147594    0.357011
      2          6           0       -1.205851   -0.674446   -0.720128
      3          6           0       -1.206240    0.675538   -0.718594
      4          6           0       -0.283675    1.146649    0.359540
      5          1           0       -0.311664   -2.180240    0.689311
      6          1           0       -1.670672   -1.317895   -1.454455
      7          1           0       -1.671333    1.320411   -1.451501
      8          1           0       -0.312458    2.178467    0.694361
      9          6           0       -0.326014   -0.001633    1.391920
     10          1           0       -1.258367   -0.002375    1.973219
     11          1           0        0.532349   -0.002176    2.067589
     12          6           0        1.246464   -0.785465   -0.290300
     13          1           0        1.435585   -1.210205   -1.314350
     14          1           0        2.103998   -1.190133    0.312854
     15          6           0        1.245528    0.786643   -0.290024
     16          1           0        2.104277    1.192798    0.311056
     17          1           0        1.431490    1.211190   -1.314320
 ---------------------------------------------------------------------
                    Distance matrix (angstroms):
                    1          2          3          4          5
     1  C    0.000000
     2  C    1.495124   0.000000
     3  C    2.309275   1.349986   0.000000
     4  C    2.294245   2.309216   1.495140   0.000000
     5  H    1.085169   2.248000   3.307255   3.343311   0.000000
     6  H    2.288124   1.081351   2.175078   3.359809   2.680723
     7  H    3.359866   2.175095   1.081353   2.288156   4.322770
     8  H    3.343253   3.307271   2.248129   1.085164   4.358710
     9  C    1.544700   2.384856   2.384875   1.544718   2.289148
    10  H    2.207853   2.776428   2.776354   2.207768   2.699586
    11  H    2.214309   3.353304   3.353328   2.214301   2.712190
    12  C    1.700000   2.492173   2.886819   2.548859   2.309285
    13  H    2.398242   2.759950   3.300029   3.363409   2.829930
    14  H    2.387979   3.505437   3.937295   3.341215   2.637699
    15  C    2.548905   2.886006   2.491422   1.700000   3.490894
    16  H    3.343584   3.937879   3.505319   2.388890   4.166201
    17  H    3.361152   3.296097   2.756706   2.397449   4.307542
                    6          7          8          9         10
     6  H    0.000000
     7  H    2.638308   0.000000
     8  H    4.322812   2.680956   0.000000
     9  C    3.412112   3.412144   2.289019   0.000000
    10  H    3.694528   3.694457   2.699314   1.098722   0.000000
    11  H    4.357661   4.357688   2.711948   1.092389   1.793201
    12  C    3.185659   3.781090   3.490657   2.432477   3.465678
    13  H    3.111280   4.009460   4.309718   3.447865   4.418635
    14  H    4.169873   4.865070   4.163205   2.912366   3.933583
    15  C    3.780106   3.184653   2.309439   2.433117   3.466166
    16  H    4.865269   4.168707   2.638006   2.915689   3.936825
    17  H    4.004911   3.107773   2.830509   3.447244   4.417689
                   11         12         13         14         15
    11  H    0.000000
    12  C    2.585177   0.000000
    13  H    3.703063   1.124655   0.000000
    14  H    2.638260   1.123796   1.759253   0.000000
    15  C    2.586349   1.572108   2.252280   2.237873   0.000000
    16  H    2.642788   2.238525   2.977165   2.382931   1.124148
    17  H    3.703785   2.251551   2.421398   2.977636   1.124279
                   16         17
    16  H    0.000000
    17  H    1.759213   0.000000
 Stoichiometry    C7H10
 Framework group  C1[X(C7H10)]
 Deg. of freedom    45
 Full point group                 C1      NOp   1
 Largest Abelian subgroup         C1      NOp   1
 Largest concise Abelian subgroup C1      NOp   1
                         Standard orientation:                         
 ---------------------------------------------------------------------
 Center     Atomic      Atomic             Coordinates (Angstroms)
 Number     Number       Type             X           Y           Z
 ---------------------------------------------------------------------
      1          6           0       -0.189011   -1.147597    0.364623
      2          6           0       -1.243714   -0.675118   -0.583933
      3          6           0       -1.244578    0.674867   -0.582560
      4          6           0       -0.190313    1.146646    0.366857
      5          1           0       -0.173660   -2.180187    0.697961
      6          1           0       -1.799455   -1.318942   -1.251738
      7          1           0       -1.801051    1.319364   -1.249108
      8          1           0       -0.175981    2.178520    0.702434
      9          6           0       -0.097930   -0.001439    1.396187
     10          1           0       -0.947089   -0.002506    2.093408
     11          1           0        0.840756   -0.001430    1.954921
     12          6           0        1.243679   -0.784872   -0.475514
     13          1           0        1.298710   -1.209736   -1.515374
     14          1           0        2.172349   -1.189003    0.011484
     15          6           0        1.241998    0.787235   -0.475349
     16          1           0        2.171196    1.193927    0.009317
     17          1           0        1.293438    1.211656   -1.515168
 ---------------------------------------------------------------------
 Rotational constants (GHZ):           3.7864599           3.2935697           2.9304371
 Standard basis: 3-21G (6D, 7F)
 There are    83 symmetry adapted cartesian basis functions of A   symmetry.
 There are    83 symmetry adapted basis functions of A   symmetry.
    83 basis functions,   135 primitive gaussians,    83 cartesian basis functions
    26 alpha electrons       26 beta electrons
       nuclear repulsion energy       302.7423744667 Hartrees.
 NAtoms=   17 NActive=   17 NUniq=   17 SFac= 1.00D+00 NAtFMM=   60 NAOKFM=F Big=F
 Integral buffers will be    131072 words long.
 Raffenetti 2 integral format.
 Two-electron integral symmetry is turned on.
 One-electron integrals computed using PRISM.
 NBasis=    83 RedAO= T EigKep=  4.46D-03  NBF=    83
 NBsUse=    83 1.00D-06 EigRej= -1.00D+00 NBFU=    83
 Initial guess from the checkpoint file:  "C3.chk"
 B after Tr=    -0.000000   -0.000000   -0.000000
         Rot=    0.999994   -0.000105    0.003338   -0.000010 Ang=  -0.38 deg.
 ExpMin= 1.83D-01 ExpMax= 1.72D+02 ExpMxC= 1.72D+02 IAcc=3 IRadAn=         5 AccDes= 0.00D+00
 Harris functional with IExCor=  402 and IRadAn=       5 diagonalized for initial guess.
 HarFok:  IExCor=  402 AccDes= 0.00D+00 IRadAn=         5 IDoV= 1 UseB2=F ITyADJ=14
 ICtDFT=  3500011 ScaDFX=  1.000000  1.000000  1.000000  1.000000
 FoFCou: FMM=F IPFlag=           0 FMFlag=      100000 FMFlg1=           0
         NFxFlg=           0 DoJE=T BraDBF=F KetDBF=T FulRan=T
         wScrn=  0.000000 ICntrl=       500 IOpCl=  0 I1Cent=   200000004 NGrid=           0
         NMat0=    1 NMatS0=      1 NMatT0=    0 NMatD0=    1 NMtDS0=    0 NMtDT0=    0
 Petite list used in FoFCou.
 Keep R1 ints in memory in canonical form, NReq=7891700.
 Requested convergence on RMS density matrix=1.00D-08 within 128 cycles.
 Requested convergence on MAX density matrix=1.00D-06.
 Requested convergence on             energy=1.00D-06.
 No special actions if energy rises.
 Integral accuracy reduced to 1.0D-05 until final iterations.
 Initial convergence to 1.0D-05 achieved.  Increase integral accuracy.
 SCF Done:  E(RB3LYP) =  -271.236074857     A.U. after   12 cycles
            NFock= 12  Conv=0.53D-08     -V/T= 2.0099
 Calling FoFJK, ICntrl=      2127 FMM=F ISym2X=0 I1Cent= 0 IOpClX= 0 NMat=1 NMatS=1 NMatT=0.
 ***** Axes restored to original set *****
 -------------------------------------------------------------------
 Center     Atomic                   Forces (Hartrees/Bohr)
 Number     Number              X              Y              Z
 -------------------------------------------------------------------
      1        6           0.049854916    0.000668984   -0.012138640
      2        6          -0.009501984    0.007598189   -0.004245090
      3        6          -0.009516805   -0.007604253   -0.004238170
      4        6           0.049822147   -0.000622455   -0.012186841
      5        1          -0.005223446   -0.000336536    0.002163544
      6        1          -0.000240637   -0.000281967    0.000268254
      7        1          -0.000242699    0.000281135    0.000271437
      8        1          -0.005223184    0.000338126    0.002141659
      9        6          -0.012380876    0.000002661    0.008046075
     10        1           0.000124401    0.000001178   -0.002211265
     11        1           0.000294498   -0.000002620    0.000109177
     12        6           0.004563950   -0.008716687   -0.004470737
     13        1          -0.014424891    0.006761749    0.014436514
     14        1          -0.019037064    0.006085747    0.001040585
     15        6           0.004636770    0.008704835   -0.004309453
     16        1          -0.019173350   -0.006217472    0.001014608
     17        1          -0.014331745   -0.006660613    0.014308344
 -------------------------------------------------------------------
 Cartesian Forces:  Max     0.049854916 RMS     0.012399832

 GradGradGradGradGradGradGradGradGradGradGradGradGradGradGradGradGradGrad
 Berny optimization.
 Using GEDIIS/GDIIS optimizer.
 FormGI is forming the generalized inverse of G from B-inverse, IUseBI=4.
 Internal  Forces:  Max     0.030359368 RMS     0.005827738
 Search for a local minimum.
 Step number   2 out of a maximum of  102
 All quantities printed in internal units (Hartrees-Bohrs-Radians)
 Mixed Optimization -- RFO/linear search
 Update second derivatives using D2CorX and points    1    2
 DE= -2.63D-02 DEPred=-2.45D-02 R= 1.07D+00
 TightC=F SS=  1.41D+00  RLast= 3.89D-01 DXNew= 5.0454D-01 1.1665D+00
 Trust test= 1.07D+00 RLast= 3.89D-01 DXMaxT set to 5.05D-01
 ITU=  1  0
 Use linear search instead of GDIIS.
     Eigenvalues ---    0.00425   0.01510   0.01586   0.01823   0.02028
     Eigenvalues ---    0.02225   0.03210   0.03774   0.03912   0.04825
     Eigenvalues ---    0.04993   0.05008   0.05129   0.05679   0.05733
     Eigenvalues ---    0.06417   0.06568   0.06817   0.06989   0.07440
     Eigenvalues ---    0.09074   0.10698   0.12982   0.13013   0.15564
     Eigenvalues ---    0.15807   0.17521   0.21878   0.24137   0.25029
     Eigenvalues ---    0.25390   0.25593   0.25793   0.25930   0.30990
     Eigenvalues ---    0.34139   0.34284   0.34351   0.35530   0.35535
     Eigenvalues ---    0.35758   0.35763   0.469121000.000001000.00000
     Eigenvalues --- 1000.000001000.000001000.000001000.000001000.00000
     Eigenvalues --- 1000.000001000.000001000.000001000.000001000.00000
     Eigenvalues --- 1000.000001000.000001000.000001000.000001000.00000
     Eigenvalues --- 1000.000001000.000001000.000001000.000001000.00000
     Eigenvalues --- 1000.000001000.000001000.000001000.000001000.00000
     Eigenvalues --- 1000.000001000.000001000.000001000.000001000.00000
     Eigenvalues --- 1000.000001000.000001000.000001000.000001000.00000
     Eigenvalues --- 1000.000001000.000001000.000001000.000001000.00000
     Eigenvalues --- 1000.000001000.000001000.000001000.000001000.00000
     Eigenvalues --- 1000.000001000.000001000.000001000.000001000.00000
     Eigenvalues --- 1000.000001000.000001000.000001000.000001000.00000
     Eigenvalues --- 1000.000001000.000001000.000001000.000001000.00000
     Eigenvalues --- 1000.000001000.000001000.000001000.000001000.00000
     Eigenvalues --- 1000.000001000.000001000.000001000.000001000.00000
 RFO step:  Lambda=-3.37530653D-03 EMin= 4.24564977D-03
 Quartic linear search produced a step of  0.67973.
 Iteration  1 RMS(Cart)=  0.02520234 RMS(Int)=  0.00164345
 Iteration  2 RMS(Cart)=  0.00143986 RMS(Int)=  0.00084581
 Iteration  3 RMS(Cart)=  0.00000274 RMS(Int)=  0.00084581
 Iteration  4 RMS(Cart)=  0.00000001 RMS(Int)=  0.00084581
 Iteration  1 RMS(Cart)=  0.00001373 RMS(Int)=  0.00000114
 Iteration  2 RMS(Cart)=  0.00000018 RMS(Int)=  0.00000115
 Variable       Old X    -DE/DX   Delta X   Delta X   Delta X     New X
                                 (Linear)    (Quad)   (Total)
    R1        2.82537   0.00941   0.02998   0.00342   0.03342   2.85879
    R2        2.05067   0.00112   0.00166   0.00295   0.00461   2.05528
    R3        2.91906   0.00126   0.01223  -0.00290   0.00955   2.92861
    R4        3.21253  -0.03036  -0.00000   0.00000   0.00000   3.21253
    R5        2.55110  -0.00564  -0.02067   0.01021  -0.01042   2.54068
    R6        2.04346   0.00009  -0.00078   0.00148   0.00070   2.04416
    R7        2.82541   0.00941   0.02997   0.00346   0.03344   2.85885
    R8        2.04346   0.00009  -0.00078   0.00148   0.00070   2.04416
    R9        2.05066   0.00112   0.00166   0.00295   0.00461   2.05527
   R10        2.91909   0.00127   0.01221  -0.00290   0.00954   2.92863
   R11        3.21253  -0.03035  -0.00000   0.00000  -0.00000   3.21253
   R12        2.07628  -0.00128   0.00305  -0.01041  -0.00736   2.06892
   R13        2.06432   0.00030  -0.00296   0.00553   0.00257   2.06689
   R14        2.12529  -0.01812  -0.08497   0.00625  -0.07871   2.04657
   R15        2.12367  -0.01616  -0.07589   0.00764  -0.06824   2.05542
   R16        2.97085  -0.00495  -0.03504   0.00306  -0.03233   2.93852
   R17        2.12433  -0.01635  -0.07674   0.00743  -0.06931   2.05502
   R18        2.12458  -0.01792  -0.08404   0.00650  -0.07753   2.04705
    A1        2.10083  -0.00147  -0.01134  -0.00935  -0.02279   2.07804
    A2        1.80369  -0.00038  -0.00803  -0.01781  -0.02754   1.77615
    A3        1.78600   0.00071   0.00938   0.01061   0.02046   1.80646
    A4        2.09448  -0.00136  -0.01741   0.00392  -0.01550   2.07898
    A5        1.92081   0.00311   0.01472   0.02493   0.04015   1.96096
    A6        1.69312   0.00008   0.02691  -0.01026   0.01696   1.71008
    A7        1.89212  -0.00057  -0.00440   0.00451  -0.00020   1.89192
    A8        2.17268   0.00009   0.00478  -0.00816  -0.00328   2.16939
    A9        2.20892   0.00034  -0.00110   0.00610   0.00512   2.21404
   A10        1.89203  -0.00058  -0.00442   0.00457  -0.00016   1.89187
   A11        2.20895   0.00034  -0.00109   0.00607   0.00510   2.21405
   A12        2.17270   0.00010   0.00478  -0.00817  -0.00330   2.16941
   A13        2.10102  -0.00147  -0.01134  -0.00939  -0.02284   2.07818
   A14        1.80368  -0.00038  -0.00802  -0.01783  -0.02755   1.77613
   A15        1.78523   0.00072   0.00944   0.01077   0.02069   1.80592
   A16        2.09426  -0.00136  -0.01743   0.00401  -0.01542   2.07883
   A17        1.92102   0.00311   0.01470   0.02488   0.04007   1.96109
   A18        1.69371   0.00008   0.02689  -0.01040   0.01680   1.71051
   A19        1.67393  -0.00238  -0.02241   0.02099  -0.00227   1.67166
   A20        1.95787   0.00170   0.01595  -0.01623  -0.00001   1.95787
   A21        1.97387  -0.00064  -0.00507   0.00019  -0.00490   1.96896
   A22        1.95773   0.00170   0.01594  -0.01619   0.00003   1.95776
   A23        1.97383  -0.00063  -0.00505   0.00023  -0.00485   1.96898
   A24        1.91723   0.00008  -0.00035   0.01044   0.00998   1.92721
   A25        2.00157  -0.00531  -0.02843  -0.04417  -0.07249   1.92908
   A26        1.98836  -0.00543  -0.03194  -0.04093  -0.07283   1.91553
   A27        1.78484   0.00240   0.00160   0.00537   0.00672   1.79156
   A28        1.79711   0.00626   0.04171   0.05519   0.09292   1.89004
   A29        1.95835   0.00090   0.00991   0.01198   0.02088   1.97922
   A30        1.93955   0.00094   0.00749   0.01131   0.01732   1.95686
   A31        1.78480   0.00240   0.00160   0.00535   0.00669   1.79149
   A32        1.98924  -0.00543  -0.03185  -0.04107  -0.07289   1.91636
   A33        2.00087  -0.00531  -0.02855  -0.04405  -0.07248   1.92839
   A34        1.94007   0.00094   0.00724   0.01142   0.01717   1.95724
   A35        1.95774   0.00092   0.01018   0.01192   0.02109   1.97883
   A36        1.79708   0.00626   0.04172   0.05518   0.09292   1.89001
    D1        2.88379  -0.00101  -0.01598  -0.02388  -0.03938   2.84441
    D2       -0.39716  -0.00201  -0.02161  -0.00531  -0.02642  -0.42358
    D3        0.48781   0.00294   0.03334  -0.00068   0.03203   0.51984
    D4       -2.79314   0.00194   0.02771   0.01788   0.04499  -2.74815
    D5       -1.26420   0.00275   0.00422   0.01195   0.01610  -1.24809
    D6        1.73804   0.00175  -0.00141   0.03052   0.02906   1.76710
    D7       -0.72631  -0.00391  -0.04617  -0.00775  -0.05327  -0.77959
    D8        1.31334  -0.00266  -0.03418  -0.02054  -0.05440   1.25895
    D9       -2.78957  -0.00168  -0.02589  -0.01940  -0.04487  -2.83444
   D10       -3.12569   0.00008  -0.00001   0.02239   0.02210  -3.10360
   D11       -1.08604   0.00133   0.01198   0.00959   0.02098  -1.06506
   D12        1.09424   0.00231   0.02026   0.01074   0.03050   1.12474
   D13        1.09745  -0.00322  -0.03029  -0.00286  -0.03282   1.06464
   D14        3.13711  -0.00197  -0.01830  -0.01565  -0.03394   3.10317
   D15       -0.96580  -0.00099  -0.01002  -0.01451  -0.02441  -0.99021
   D16       -0.94234  -0.00025   0.00356  -0.00424  -0.00058  -0.94292
   D17       -3.00702  -0.00047  -0.00533  -0.01345  -0.01939  -3.02641
   D18        1.18179  -0.00039   0.00122  -0.00976  -0.00861   1.17318
   D19        1.31091   0.00023   0.00407   0.00573   0.01007   1.32098
   D20       -0.75377   0.00000  -0.00483  -0.00348  -0.00874  -0.76251
   D21       -2.84814   0.00009   0.00172   0.00021   0.00203  -2.84611
   D22       -2.78123  -0.00000   0.00367   0.01498   0.01955  -2.76167
   D23        1.43728  -0.00023  -0.00522   0.00577   0.00074   1.43802
   D24       -0.65710  -0.00014   0.00133   0.00946   0.01152  -0.64558
   D25        0.00013   0.00000   0.00005  -0.00010  -0.00005   0.00009
   D26        2.99844  -0.00105  -0.00524   0.01766   0.01255   3.01099
   D27       -2.99843   0.00106   0.00528  -0.01770  -0.01256  -3.01099
   D28       -0.00012  -0.00000  -0.00002   0.00005   0.00004  -0.00008
   D29       -2.88383   0.00101   0.01591   0.02398   0.03941  -2.84442
   D30       -0.48801  -0.00294  -0.03343   0.00085  -0.03196  -0.51997
   D31        1.26439  -0.00276  -0.00431  -0.01188  -0.01613   1.24827
   D32        0.39736   0.00201   0.02161   0.00527   0.02637   0.42373
   D33        2.79318  -0.00194  -0.02774  -0.01786  -0.04500   2.74818
   D34       -1.73760  -0.00176   0.00138  -0.03060  -0.02916  -1.76677
   D35        0.72640   0.00392   0.04621   0.00767   0.05323   0.77963
   D36       -1.31337   0.00266   0.03421   0.02050   0.05438  -1.25899
   D37        2.78968   0.00168   0.02592   0.01929   0.04479   2.83447
   D38        3.12584  -0.00007   0.00005  -0.02246  -0.02214   3.10369
   D39        1.08607  -0.00133  -0.01195  -0.00963  -0.02099   1.06508
   D40       -1.09407  -0.00231  -0.02024  -0.01084  -0.03059  -1.12465
   D41       -1.09673   0.00322   0.03028   0.00266   0.03260  -1.06413
   D42       -3.13650   0.00196   0.01828   0.01548   0.03375  -3.10275
   D43        0.96655   0.00099   0.00999   0.01428   0.02415   0.99071
   D44       -1.18415   0.00040  -0.00119   0.01040   0.00929  -1.17486
   D45        3.00361   0.00049   0.00565   0.01407   0.02033   3.02395
   D46        0.93883   0.00027  -0.00323   0.00490   0.00157   0.94040
   D47        2.84593  -0.00008  -0.00171   0.00043  -0.00138   2.84456
   D48        0.75051   0.00002   0.00514   0.00410   0.00967   0.76018
   D49       -1.31427  -0.00020  -0.00375  -0.00507  -0.00909  -1.32336
   D50        0.65474   0.00015  -0.00131  -0.00884  -0.01087   0.64388
   D51       -1.44068   0.00025   0.00554  -0.00516   0.00018  -1.44050
   D52        2.77772   0.00003  -0.00335  -0.01433  -0.01858   2.75914
   D53        0.00139   0.00000  -0.00003  -0.00035  -0.00039   0.00100
   D54        2.13078  -0.00454  -0.03314  -0.04006  -0.07414   2.05664
   D55       -2.15092   0.00439   0.02783   0.04293   0.07157  -2.07935
   D56        2.15489  -0.00439  -0.02791  -0.04375  -0.07247   2.08241
   D57       -1.99890  -0.00892  -0.06102  -0.08346  -0.14623  -2.14513
   D58        0.00257  -0.00000  -0.00005  -0.00047  -0.00051   0.00206
   D59       -2.12673   0.00453   0.03304   0.03922   0.07320  -2.05353
   D60        0.00266  -0.00000  -0.00007  -0.00049  -0.00055   0.00211
   D61        2.00414   0.00892   0.06091   0.08250   0.14516   2.14930
         Item               Value     Threshold  Converged?
 Maximum Force            0.018125     0.000450     NO 
 RMS     Force            0.004248     0.000300     NO 
 Maximum Displacement     0.091728     0.001800     NO 
 RMS     Displacement     0.025293     0.001200     NO 
 Predicted change in Energy=-9.418266D-03
 GradGradGradGradGradGradGradGradGradGradGradGradGradGradGradGradGradGrad

                          Input orientation:                          
 ---------------------------------------------------------------------
 Center     Atomic      Atomic             Coordinates (Angstroms)
 Number     Number       Type             X           Y           Z
 ---------------------------------------------------------------------
      1          6           0       -0.238508   -1.150127    0.342437
      2          6           0       -1.200793   -0.671794   -0.722359
      3          6           0       -1.201171    0.672677   -0.720950
      4          6           0       -0.239032    1.149265    0.344802
      5          1           0       -0.301098   -2.179787    0.687069
      6          1           0       -1.692222   -1.319993   -1.435423
      7          1           0       -1.692902    1.322101   -1.432690
      8          1           0       -0.302015    2.178130    0.691720
      9          6           0       -0.318568   -0.001522    1.379759
     10          1           0       -1.268151   -0.002228    1.924679
     11          1           0        0.522598   -0.002061    2.078849
     12          6           0        1.288152   -0.776878   -0.305632
     13          1           0        1.396626   -1.206598   -1.293795
     14          1           0        2.068312   -1.186283    0.332171
     15          6           0        1.287374    0.778119   -0.305071
     16          1           0        2.068195    1.188141    0.331162
     17          1           0        1.393425    1.208370   -1.293538
 ---------------------------------------------------------------------
                    Distance matrix (angstroms):
                    1          2          3          4          5
     1  C    0.000000
     2  C    1.512807   0.000000
     3  C    2.319510   1.344472   0.000000
     4  C    2.299393   2.319498   1.512836   0.000000
     5  H    1.087607   2.251662   3.305934   3.347176   0.000000
     6  H    2.302808   1.081723   2.173094   3.373158   2.679449
     7  H    3.373166   2.173099   1.081723   2.302843   4.323623
     8  H    3.347137   3.305977   2.251778   1.087604   4.357920
     9  C    1.549755   2.376233   2.376238   1.549765   2.285818
    10  H    2.209372   2.731238   2.731178   2.209306   2.684890
    11  H    2.216408   3.356394   3.356415   2.216427   2.712567
    12  C    1.700000   2.525777   2.910400   2.542711   2.340796
    13  H    2.313894   2.712773   3.257050   3.303099   2.784455
    14  H    2.307126   3.473294   3.905677   3.283105   2.593667
    15  C    2.542778   2.909871   2.525259   1.700000   3.500971
    16  H    3.284586   3.905835   3.472952   2.307595   4.133178
    17  H    3.301838   3.254417   2.710490   2.313562   4.274790
                    6          7          8          9         10
     6  H    0.000000
     7  H    2.642095   0.000000
     8  H    4.323688   2.679640   0.000000
     9  C    3.398609   3.398623   2.285728   0.000000
    10  H    3.634092   3.634031   2.684692   1.094827   0.000000
    11  H    4.358036   4.358067   2.712443   1.093749   1.797373
    12  C    3.233269   3.816105   3.500773   2.454235   3.479807
    13  H    3.094172   3.994846   4.275983   3.397350   4.348576
    14  H    4.157389   4.853190   4.131222   2.863266   3.882016
    15  C    3.815464   3.232567   2.340893   2.454698   3.480149
    16  H    4.853071   4.156317   2.593834   2.865570   3.884261
    17  H    3.991738   3.091555   2.784996   3.397246   4.348156
                   11         12         13         14         15
    11  H    0.000000
    12  C    2.621481   0.000000
    13  H    3.686401   1.083001   0.000000
    14  H    2.615816   1.087683   1.759357   0.000000
    15  C    2.622334   1.554997   2.220048   2.207898   0.000000
    16  H    2.619134   2.208002   2.970902   2.374424   1.087470
    17  H    3.687340   2.219966   2.414970   2.971997   1.083250
                   16         17
    16  H    0.000000
    17  H    1.759368   0.000000
 Stoichiometry    C7H10
 Framework group  C1[X(C7H10)]
 Deg. of freedom    45
 Full point group                 C1      NOp   1
 Largest Abelian subgroup         C1      NOp   1
 Largest concise Abelian subgroup C1      NOp   1
                         Standard orientation:                         
 ---------------------------------------------------------------------
 Center     Atomic      Atomic             Coordinates (Angstroms)
 Number     Number       Type             X           Y           Z
 ---------------------------------------------------------------------
      1          6           0       -0.163740   -1.150036    0.354354
      2          6           0       -1.256916   -0.672239   -0.575841
      3          6           0       -1.257446    0.672233   -0.574771
      4          6           0       -0.164532    1.149357    0.356123
      5          1           0       -0.180545   -2.179602    0.704495
      6          1           0       -1.837064   -1.320764   -1.218468
      7          1           0       -1.838048    1.321331   -1.216408
      8          1           0       -0.181947    2.178316    0.708007
      9          6           0       -0.107987   -0.001126    1.392929
     10          1           0       -0.978306   -0.001866    2.057149
     11          1           0        0.817244   -0.001268    1.976225
     12          6           0        1.265158   -0.776661   -0.487574
     13          1           0        1.243812   -1.206664   -1.481320
     14          1           0        2.122007   -1.185701    0.043039
     15          6           0        1.264067    0.778336   -0.487351
     16          1           0        2.121160    1.188722    0.041390
     17          1           0        1.240061    1.208303   -1.481324
 ---------------------------------------------------------------------
 Rotational constants (GHZ):           3.8135973           3.2752273           2.9099585
 Standard basis: 3-21G (6D, 7F)
 There are    83 symmetry adapted cartesian basis functions of A   symmetry.
 There are    83 symmetry adapted basis functions of A   symmetry.
    83 basis functions,   135 primitive gaussians,    83 cartesian basis functions
    26 alpha electrons       26 beta electrons
       nuclear repulsion energy       302.9277456190 Hartrees.
 NAtoms=   17 NActive=   17 NUniq=   17 SFac= 1.00D+00 NAtFMM=   60 NAOKFM=F Big=F
 Integral buffers will be    131072 words long.
 Raffenetti 2 integral format.
 Two-electron integral symmetry is turned on.
 One-electron integrals computed using PRISM.
 NBasis=    83 RedAO= T EigKep=  4.52D-03  NBF=    83
 NBsUse=    83 1.00D-06 EigRej= -1.00D+00 NBFU=    83
 Initial guess from the checkpoint file:  "C3.chk"
 B after Tr=     0.000000   -0.000000   -0.000000
         Rot=    0.999999    0.000077   -0.001285    0.000119 Ang=   0.15 deg.
 ExpMin= 1.83D-01 ExpMax= 1.72D+02 ExpMxC= 1.72D+02 IAcc=3 IRadAn=         5 AccDes= 0.00D+00
 Harris functional with IExCor=  402 and IRadAn=       5 diagonalized for initial guess.
 HarFok:  IExCor=  402 AccDes= 0.00D+00 IRadAn=         5 IDoV= 1 UseB2=F ITyADJ=14
 ICtDFT=  3500011 ScaDFX=  1.000000  1.000000  1.000000  1.000000
 FoFCou: FMM=F IPFlag=           0 FMFlag=      100000 FMFlg1=           0
         NFxFlg=           0 DoJE=T BraDBF=F KetDBF=T FulRan=T
         wScrn=  0.000000 ICntrl=       500 IOpCl=  0 I1Cent=   200000004 NGrid=           0
         NMat0=    1 NMatS0=      1 NMatT0=    0 NMatD0=    1 NMtDS0=    0 NMtDT0=    0
 Petite list used in FoFCou.
 Keep R1 ints in memory in canonical form, NReq=7891700.
 Requested convergence on RMS density matrix=1.00D-08 within 128 cycles.
 Requested convergence on MAX density matrix=1.00D-06.
 Requested convergence on             energy=1.00D-06.
 No special actions if energy rises.
 Integral accuracy reduced to 1.0D-05 until final iterations.
 Initial convergence to 1.0D-05 achieved.  Increase integral accuracy.
 SCF Done:  E(RB3LYP) =  -271.244586544     A.U. after   12 cycles
            NFock= 12  Conv=0.74D-08     -V/T= 2.0093
 Calling FoFJK, ICntrl=      2127 FMM=F ISym2X=0 I1Cent= 0 IOpClX= 0 NMat=1 NMatS=1 NMatT=0.
 ***** Axes restored to original set *****
 -------------------------------------------------------------------
 Center     Atomic                   Forces (Hartrees/Bohr)
 Number     Number              X              Y              Z
 -------------------------------------------------------------------
      1        6           0.034031115    0.008103252   -0.012440458
      2        6          -0.002481577   -0.000229995   -0.000886056
      3        6          -0.002495756    0.000232061   -0.000866406
      4        6           0.034015266   -0.008063501   -0.012476710
      5        1          -0.001651346    0.000486686    0.000438762
      6        1          -0.000227001   -0.000078619    0.000062084
      7        1          -0.000228563    0.000080121    0.000063528
      8        1          -0.001654519   -0.000482738    0.000420779
      9        6          -0.002872003    0.000000839    0.004296929
     10        1          -0.000880545   -0.000001343   -0.000796396
     11        1          -0.000225939   -0.000000776    0.000717775
     12        6          -0.026001527   -0.001370059    0.011329320
     13        1          -0.002546255   -0.001718880   -0.005836708
     14        1           0.000878139   -0.001059960    0.005230142
     15        6          -0.026078582    0.001341655    0.011083469
     16        1           0.000965742    0.001096920    0.005333788
     17        1          -0.002546649    0.001664339   -0.005673842
 -------------------------------------------------------------------
 Cartesian Forces:  Max     0.034031115 RMS     0.009457075

 GradGradGradGradGradGradGradGradGradGradGradGradGradGradGradGradGradGrad
 Berny optimization.
 Using GEDIIS/GDIIS optimizer.
 FormGI is forming the generalized inverse of G from B-inverse, IUseBI=4.
 Internal  Forces:  Max     0.029939182 RMS     0.004163284
 Search for a local minimum.
 Step number   3 out of a maximum of  102
 All quantities printed in internal units (Hartrees-Bohrs-Radians)
 Mixed Optimization -- RFO/linear search
 Update second derivatives using D2CorX and points    2    3
 DE= -8.51D-03 DEPred=-9.42D-03 R= 9.04D-01
 TightC=F SS=  1.41D+00  RLast= 4.21D-01 DXNew= 8.4853D-01 1.2630D+00
 Trust test= 9.04D-01 RLast= 4.21D-01 DXMaxT set to 8.49D-01
 ITU=  1  1  0
 Use linear search instead of GDIIS.
     Eigenvalues ---    0.00420   0.01511   0.01598   0.01829   0.02040
     Eigenvalues ---    0.02359   0.03238   0.03868   0.04039   0.04696
     Eigenvalues ---    0.04720   0.04932   0.05165   0.05646   0.05774
     Eigenvalues ---    0.06596   0.06649   0.06696   0.07142   0.07419
     Eigenvalues ---    0.08881   0.10611   0.12911   0.12964   0.15637
     Eigenvalues ---    0.15844   0.17696   0.21722   0.24990   0.25389
     Eigenvalues ---    0.25503   0.25691   0.25924   0.30716   0.30942
     Eigenvalues ---    0.34033   0.34170   0.34355   0.35530   0.35538
     Eigenvalues ---    0.35758   0.35767   0.468981000.000001000.00000
     Eigenvalues --- 1000.000001000.000001000.000001000.000001000.00000
     Eigenvalues --- 1000.000001000.000001000.000001000.000001000.00000
     Eigenvalues --- 1000.000001000.000001000.000001000.000001000.00000
     Eigenvalues --- 1000.000001000.000001000.000001000.000001000.00000
     Eigenvalues --- 1000.000001000.000001000.000001000.000001000.00000
     Eigenvalues --- 1000.000001000.000001000.000001000.000001000.00000
     Eigenvalues --- 1000.000001000.000001000.000001000.000001000.00000
     Eigenvalues --- 1000.000001000.000001000.000001000.000001000.00000
     Eigenvalues --- 1000.000001000.000001000.000001000.000001000.00000
     Eigenvalues --- 1000.000001000.000001000.000001000.000001000.00000
     Eigenvalues --- 1000.000001000.000001000.000001000.000001000.00000
     Eigenvalues --- 1000.000001000.000001000.000001000.000001000.00000
     Eigenvalues --- 1000.000001000.000001000.000001000.000001000.00000
     Eigenvalues --- 1000.000001000.000001000.000001000.000001000.00000
 RFO step:  Lambda=-1.62017621D-03 EMin= 4.19686257D-03
 Quartic linear search produced a step of  0.09705.
 Iteration  1 RMS(Cart)=  0.01646369 RMS(Int)=  0.00033417
 Iteration  2 RMS(Cart)=  0.00031175 RMS(Int)=  0.00018060
 Iteration  3 RMS(Cart)=  0.00000004 RMS(Int)=  0.00018060
 Iteration  1 RMS(Cart)=  0.00000455 RMS(Int)=  0.00000037
 Iteration  2 RMS(Cart)=  0.00000006 RMS(Int)=  0.00000038
 Variable       Old X    -DE/DX   Delta X   Delta X   Delta X     New X
                                 (Linear)    (Quad)   (Total)
    R1        2.85879   0.00178   0.00324   0.00571   0.00896   2.86775
    R2        2.05528  -0.00023   0.00045  -0.00085  -0.00040   2.05488
    R3        2.92861  -0.00023   0.00093   0.00198   0.00297   2.93159
    R4        3.21253  -0.02994   0.00000   0.00000  -0.00000   3.21253
    R5        2.54068  -0.00136  -0.00101   0.00010  -0.00090   2.53979
    R6        2.04416   0.00011   0.00007   0.00031   0.00037   2.04453
[...]
 ! D12   D(5,1,9,11)            64.2721         -DE/DX =    0.0001              !
 ! D13   D(12,1,9,4)            59.9134         -DE/DX =   -0.0006              !
 ! D14   D(12,1,9,10)          175.5795         -DE/DX =   -0.0004              !
 ! D15   D(12,1,9,11)          -58.3843         -DE/DX =   -0.0002              !
 ! D16   D(2,1,12,13)          -53.6093         -DE/DX =    0.0001              !
 ! D17   D(2,1,12,14)         -173.6577         -DE/DX =    0.0003              !
 ! D18   D(2,1,12,15)           67.345          -DE/DX =    0.0001              !
 ! D19   D(5,1,12,13)           75.8658         -DE/DX =    0.0                 !
 ! D20   D(5,1,12,14)          -44.1825         -DE/DX =    0.0002              !
 ! D21   D(5,1,12,15)         -163.1798         -DE/DX =    0.0                 !
 ! D22   D(9,1,12,13)         -157.7031         -DE/DX =   -0.0004              !
 ! D23   D(9,1,12,14)           82.2485         -DE/DX =   -0.0002              !
 ! D24   D(9,1,12,15)          -36.7487         -DE/DX =   -0.0004              !
 ! D25   D(1,2,3,4)              0.0005         -DE/DX =    0.0                 !
 ! D26   D(1,2,3,7)            173.1385         -DE/DX =   -0.0005              !
 ! D27   D(6,2,3,4)           -173.1391         -DE/DX =    0.0005              !
 ! D28   D(6,2,3,7)             -0.0011         -DE/DX =    0.0                 !
 ! D29   D(2,3,4,8)           -162.1839         -DE/DX =   -0.0006              !
 ! D30   D(2,3,4,9)            -30.9939         -DE/DX =   -0.0004              !
 ! D31   D(2,3,4,15)            71.3942         -DE/DX =   -0.0012              !
 ! D32   D(7,3,4,8)             24.4491         -DE/DX =   -0.0001              !
 ! D33   D(7,3,4,9)            155.6391         -DE/DX =    0.0001              !
 ! D34   D(7,3,4,15)          -101.9727         -DE/DX =   -0.0006              !
 ! D35   D(3,4,9,1)             46.4892         -DE/DX =    0.0002              !
 ! D36   D(3,4,9,10)           -69.1772         -DE/DX =    0.0                 !
 ! D37   D(3,4,9,11)           164.7867         -DE/DX =   -0.0002              !
 ! D38   D(8,4,9,1)            177.429          -DE/DX =    0.0004              !
 ! D39   D(8,4,9,10)            61.7625         -DE/DX =    0.0001              !
 ! D40   D(8,4,9,11)           -64.2735         -DE/DX =   -0.0001              !
 ! D41   D(15,4,9,1)           -59.9105         -DE/DX =    0.0006              !
 ! D42   D(15,4,9,10)         -175.5769         -DE/DX =    0.0004              !
 ! D43   D(15,4,9,11)           58.387          -DE/DX =    0.0002              !
 ! D44   D(3,4,15,12)          -67.3547         -DE/DX =   -0.0001              !
 ! D45   D(3,4,15,16)          173.6428         -DE/DX =   -0.0003              !
 ! D46   D(3,4,15,17)           53.5937         -DE/DX =   -0.0001              !
 ! D47   D(8,4,15,12)          163.1717         -DE/DX =    0.0                 !
 ! D48   D(8,4,15,16)           44.1693         -DE/DX =   -0.0002              !
 ! D49   D(8,4,15,17)          -75.8799         -DE/DX =    0.0                 !
 ! D50   D(9,4,15,12)           36.7387         -DE/DX =    0.0004              !
 ! D51   D(9,4,15,16)          -82.2637         -DE/DX =    0.0002              !
 ! D52   D(9,4,15,17)          157.6871         -DE/DX =    0.0004              !
 ! D53   D(1,12,15,4)            0.006          -DE/DX =    0.0                 !
 ! D54   D(1,12,15,16)         116.1783         -DE/DX =    0.0001              !
 ! D55   D(1,12,15,17)        -117.9129         -DE/DX =   -0.0001              !
 ! D56   D(13,12,15,4)         117.9334         -DE/DX =    0.0001              !
 ! D57   D(13,12,15,16)       -125.8943         -DE/DX =    0.0003              !
 ! D58   D(13,12,15,17)          0.0145         -DE/DX =    0.0                 !
 ! D59   D(14,12,15,4)        -116.157          -DE/DX =   -0.0001              !
 ! D60   D(14,12,15,16)          0.0153         -DE/DX =    0.0                 !
 ! D61   D(14,12,15,17)        125.9241         -DE/DX =   -0.0003              !
 --------------------------------------------------------------------------------
 GradGradGradGradGradGradGradGradGradGradGradGradGradGradGradGradGradGrad

                          Input orientation:                          
 ---------------------------------------------------------------------
 Center     Atomic      Atomic             Coordinates (Angstroms)
 Number     Number       Type             X           Y           Z
 ---------------------------------------------------------------------
      1          6           0       -0.218231   -1.145760    0.339208
      2          6           0       -1.199836   -0.672144   -0.718388
      3          6           0       -1.200252    0.672547   -0.717271
      4          6           0       -0.218921    1.145010    0.341113
      5          1           0       -0.295203   -2.173767    0.686648
      6          1           0       -1.706833   -1.324026   -1.417271
      7          1           0       -1.707637    1.325280   -1.415076
      8          1           0       -0.296532    2.172387    0.690268
      9          6           0       -0.320957   -0.001268    1.382157
     10          1           0       -1.292460   -0.001975    1.886923
     11          1           0        0.495697   -0.001630    2.110278
     12          6           0        1.305810   -0.773393   -0.315498
     13          1           0        1.387312   -1.210262   -1.311266
     14          1           0        2.073660   -1.189168    0.341779
     15          6           0        1.305301    0.774665   -0.314319
     16          1           0        2.073037    1.189975    0.343371
     17          1           0        1.386265    1.213063   -1.309465
 ---------------------------------------------------------------------
                    Distance matrix (angstroms):
                    1          2          3          4          5
     1  C    0.000000
     2  C    1.518673   0.000000
     3  C    2.320937   1.344692   0.000000
     4  C    2.290770   2.320945   1.518686   0.000000
     5  H    1.087860   2.246633   3.300244   3.337588   0.000000
     6  H    2.309314   1.081865   2.175529   3.376674   2.672309
     7  H    3.376667   2.175532   1.081865   2.309323   4.319207
     8  H    3.337585   3.300247   2.246642   1.087860   4.346157
     9  C    1.551824   2.373773   2.373771   1.551817   2.281261
    10  H    2.204004   2.691719   2.691711   2.203993   2.674297
    11  H    2.226076   3.365379   3.365382   2.226074   2.714853
    12  C    1.700000   2.539850   2.921047   2.536969   2.351295
    13  H    2.303474   2.708212   3.254733   3.295094   2.784036
    14  H    2.292304   3.479518   3.912297   3.271745   2.588413
    15  C    2.536982   2.921000   2.539802   1.700000   3.500972
    16  H    3.271939   3.912355   3.479528   2.292400   4.128094
    17  H    3.294932   3.254428   2.707937   2.303403   4.275795
                    6          7          8          9         10
     6  H    0.000000
     7  H    2.649307   0.000000
     8  H    4.319210   2.672317   0.000000
     9  C    3.392217   3.392216   2.281246   0.000000
    10  H    3.582906   3.582900   2.674267   1.094809   0.000000
    11  H    4.363882   4.363885   2.714849   1.094113   1.802053
    12  C    3.254707   3.833323   3.500956   2.474790   3.492385
    13  H    3.098050   4.002307   4.275954   3.410920   4.343909
    14  H    4.171879   4.869004   4.127870   2.868394   3.889430
    15  C    3.833270   3.254633   2.351318   2.474838   3.492420
    16  H    4.869032   4.171803   2.588500   2.868683   3.889713
    17  H    4.001962   3.097737   2.784070   3.410871   4.343821
                   11         12         13         14         15
    11  H    0.000000
    12  C    2.671384   0.000000
    13  H    3.736674   1.090436   0.000000
    14  H    2.651000   1.092920   1.789993   0.000000
    15  C    2.671473   1.548059   2.222737   2.208502   0.000000
    16  H    2.651393   2.208520   2.994858   2.379143   1.092912
    17  H    3.736741   2.222712   2.423325   2.994968   1.090442
                   16         17
    16  H    0.000000
    17  H    1.789988   0.000000
 Stoichiometry    C7H10
 Framework group  C1[X(C7H10)]
 Deg. of freedom    45
 Full point group                 C1      NOp   1
 Largest Abelian subgroup         C1      NOp   1
 Largest concise Abelian subgroup C1      NOp   1
                         Standard orientation:                         
 ---------------------------------------------------------------------
 Center     Atomic      Atomic             Coordinates (Angstroms)
 Number     Number       Type             X           Y           Z
 ---------------------------------------------------------------------
      1          6           0       -0.156209   -1.145415    0.349505
      2          6           0       -1.255026   -0.672337   -0.585997
      3          6           0       -1.255066    0.672355   -0.585895
      4          6           0       -0.156258    1.145355    0.349680
      5          1           0       -0.192072   -2.173139    0.704383
      6          1           0       -1.840632   -1.324611   -1.220061
      7          1           0       -1.840696    1.324696   -1.219867
      8          1           0       -0.192185    2.173018    0.704723
      9          6           0       -0.135660   -0.000105    1.396405
     10          1           0       -1.041236   -0.000166    2.011662
     11          1           0        0.760777   -0.000136    2.023688
     12          6           0        1.280566   -0.773958   -0.479772
     13          1           0        1.244603   -1.211604   -1.477881
     14          1           0        2.120149   -1.189442    0.083209
     15          6           0        1.280476    0.774100   -0.479757
     16          1           0        2.120146    1.189701    0.082995
     17          1           0        1.244210    1.211721   -1.477873
 ---------------------------------------------------------------------
 Rotational constants (GHZ):           3.8200413           3.2524462           2.9003274

 **********************************************************************

            Population analysis using the SCF Density.

 **********************************************************************

 Orbital symmetries:
       Occupied  (A) (A) (A) (A) (A) (A) (A) (A) (A) (A) (A) (A)
                 (A) (A) (A) (A) (A) (A) (A) (A) (A) (A) (A) (A)
                 (A) (A)
       Virtual   (A) (A) (A) (A) (A) (A) (A) (A) (A) (A) (A) (A)
                 (A) (A) (A) (A) (A) (A) (A) (A) (A) (A) (A) (A)
                 (A) (A) (A) (A) (A) (A) (A) (A) (A) (A) (A) (A)
                 (A) (A) (A) (A) (A) (A) (A) (A) (A) (A) (A) (A)
                 (A) (A) (A) (A) (A) (A) (A) (A) (A)
 The electronic state is 1-A.
 Alpha  occ. eigenvalues --  -10.12899 -10.12799 -10.11795 -10.11720 -10.11332
 Alpha  occ. eigenvalues --  -10.11199 -10.11083  -0.86467  -0.73366  -0.69758
 Alpha  occ. eigenvalues --   -0.69275  -0.57596  -0.55304  -0.51013  -0.50759
 Alpha  occ. eigenvalues --   -0.46200  -0.43465  -0.39205  -0.37206  -0.34789
 Alpha  occ. eigenvalues --   -0.34700  -0.34621  -0.32462  -0.31222  -0.29430
 Alpha  occ. eigenvalues --   -0.22859
 Alpha virt. eigenvalues --    0.02900   0.11264   0.13900   0.14715   0.16313
 Alpha virt. eigenvalues --    0.18521   0.19106   0.19683   0.19836   0.20597
 Alpha virt. eigenvalues --    0.20808   0.21222   0.24272   0.25818   0.26520
 Alpha virt. eigenvalues --    0.28402   0.28463   0.37201   0.43123   0.68128
 Alpha virt. eigenvalues --    0.69670   0.71559   0.71981   0.72870   0.75556
 Alpha virt. eigenvalues --    0.75796   0.77190   0.77272   0.78979   0.82023
 Alpha virt. eigenvalues --    0.85183   0.89184   0.91216   0.91935   0.98299
 Alpha virt. eigenvalues --    1.02101   1.02598   1.03457   1.04327   1.06326
 Alpha virt. eigenvalues --    1.06699   1.08093   1.11848   1.12240   1.13749
 Alpha virt. eigenvalues --    1.19092   1.28376   1.36937   1.39203   1.43229
 Alpha virt. eigenvalues --    1.47286   1.90130   1.90976   2.03804   2.18492
 Alpha virt. eigenvalues --    2.30677   2.80141
          Condensed to atoms (all electrons):
               1          2          3          4          5          6
     1  C    5.540989   0.301216  -0.100209  -0.170705   0.394766  -0.033859
     2  C    0.301216   5.262722   0.521660  -0.100210  -0.032580   0.392419
     3  C   -0.100209   0.521660   5.262731   0.301227   0.004047  -0.037778
     4  C   -0.170705  -0.100210   0.301227   5.540987   0.004311   0.004503
     5  H    0.394766  -0.032580   0.004047   0.004311   0.515754  -0.001493
     6  H   -0.033859   0.392419  -0.037778   0.004503  -0.001493   0.501665
     7  H    0.004504  -0.037778   0.392418  -0.033859  -0.000050  -0.002343
     8  H    0.004311   0.004046  -0.032578   0.394766  -0.000063  -0.000050
     9  C    0.283447  -0.108785  -0.108788   0.283440  -0.026135   0.002978
    10  H   -0.037135   0.001939   0.001939  -0.037137  -0.001061  -0.000054
    11  H   -0.037476   0.004814   0.004813  -0.037476  -0.001185  -0.000038
    12  C    0.257648  -0.080258  -0.008386  -0.056559  -0.025878   0.000558
    13  H   -0.030108  -0.002844   0.001178   0.002750   0.000312   0.000526
    14  H   -0.029249   0.003167   0.000266   0.002955  -0.000869  -0.000023
    15  C   -0.056559  -0.008389  -0.080270   0.257645   0.002164  -0.000285
    16  H    0.002955   0.000266   0.003166  -0.029240  -0.000041   0.000004
    17  H    0.002749   0.001179  -0.002845  -0.030116  -0.000036   0.000003
               7          8          9         10         11         12
     1  C    0.004504   0.004311   0.283447  -0.037135  -0.037476   0.257648
     2  C   -0.037778   0.004046  -0.108785   0.001939   0.004814  -0.080258
     3  C    0.392418  -0.032578  -0.108788   0.001939   0.004813  -0.008386
     4  C   -0.033859   0.394766   0.283440  -0.037137  -0.037476  -0.056559
     5  H   -0.000050  -0.000063  -0.026135  -0.001061  -0.001185  -0.025878
     6  H   -0.002343  -0.000050   0.002978  -0.000054  -0.000038   0.000558
     7  H    0.501665  -0.001493   0.002978  -0.000054  -0.000038  -0.000285
     8  H   -0.001493   0.515752  -0.026138  -0.001061  -0.001185   0.002164
     9  C    0.002978  -0.026138   5.435487   0.364765   0.369883  -0.091683
    10  H   -0.000054  -0.001061   0.364765   0.526273  -0.024223   0.004229
    11  H   -0.000038  -0.001185   0.369883  -0.024223   0.542404  -0.001050
    12  C   -0.000285   0.002164  -0.091683   0.004229  -0.001050   5.386180
    13  H    0.000003  -0.000036   0.003468  -0.000064   0.000036   0.373869
    14  H    0.000004  -0.000041   0.000450  -0.000069   0.000746   0.365923
    15  C    0.000558  -0.025876  -0.091666   0.004228  -0.001050   0.291447
    16  H   -0.000023  -0.000868   0.000450  -0.000069   0.000745  -0.040346
    17  H    0.000527   0.000312   0.003469  -0.000064   0.000035  -0.037154
              13         14         15         16         17
     1  C   -0.030108  -0.029249  -0.056559   0.002955   0.002749
     2  C   -0.002844   0.003167  -0.008389   0.000266   0.001179
     3  C    0.001178   0.000266  -0.080270   0.003166  -0.002845
     4  C    0.002750   0.002955   0.257645  -0.029240  -0.030116
     5  H    0.000312  -0.000869   0.002164  -0.000041  -0.000036
     6  H    0.000526  -0.000023  -0.000285   0.000004   0.000003
     7  H    0.000003   0.000004   0.000558  -0.000023   0.000527
     8  H   -0.000036  -0.000041  -0.025876  -0.000868   0.000312
     9  C    0.003468   0.000450  -0.091666   0.000450   0.003469
    10  H   -0.000064  -0.000069   0.004228  -0.000069  -0.000064
    11  H    0.000036   0.000746  -0.001050   0.000745   0.000035
    12  C    0.373869   0.365923   0.291447  -0.040346  -0.037154
    13  H    0.527975  -0.028998  -0.037150   0.002531  -0.004668
    14  H   -0.028998   0.540077  -0.040350  -0.004162   0.002532
    15  C   -0.037150  -0.040350   5.386179   0.365930   0.373861
    16  H    0.002531  -0.004162   0.365930   0.540060  -0.028998
    17  H   -0.004668   0.002532   0.373861  -0.028998   0.527988
 Mulliken charges:
               1
     1  C   -0.297285
     2  C   -0.122583
     3  C   -0.122590
     4  C   -0.297283
     5  H    0.168037
     6  H    0.173266
     7  H    0.173265
     8  H    0.168036
     9  C   -0.297620
    10  H    0.197617
    11  H    0.180245
    12  C   -0.340419
    13  H    0.191221
    14  H    0.187643
    15  C   -0.340419
    16  H    0.187641
    17  H    0.191227
 Sum of Mulliken charges =   0.00000
 Mulliken charges with hydrogens summed into heavy atoms:
               1
     1  C   -0.129248
     2  C    0.050682
     3  C    0.050676
     4  C   -0.129247
     9  C    0.080243
    12  C    0.038445
    15  C    0.038449
 Electronic spatial extent (au):  <R**2>=            607.3418
 Charge=             -0.0000 electrons
 Dipole moment (field-independent basis, Debye):
    X=              0.3041    Y=              0.0000    Z=             -0.0531  Tot=              0.3087
 Quadrupole moment (field-independent basis, Debye-Ang):
   XX=            -44.0840   YY=            -41.9139   ZZ=            -43.0737
   XY=             -0.0002   XZ=              1.4776   YZ=              0.0002
 Traceless Quadrupole moment (field-independent basis, Debye-Ang):
   XX=             -1.0601   YY=              1.1100   ZZ=             -0.0498
   XY=             -0.0002   XZ=              1.4776   YZ=              0.0002
 Octapole moment (field-independent basis, Debye-Ang**2):
  XXX=              2.8838  YYY=             -0.0001  ZZZ=             -0.4196  XYY=             -1.8971
  XXY=              0.0005  XXZ=             -1.3796  XZZ=             -0.9201  YZZ=             -0.0003
  YYZ=             -0.7315  XYZ=              0.0000
 Hexadecapole moment (field-independent basis, Debye-Ang**3):
 XXXX=           -342.4209 YYYY=           -260.1020 ZZZZ=           -218.5793 XXXY=              0.0004
 XXXZ=             11.5441 YYYX=             -0.0008 YYYZ=              0.0011 ZZZX=              0.4712
 ZZZY=              0.0010 XXYY=            -97.6773 XXZZ=            -87.1862 YYZZ=            -78.3963
 XXYZ=              0.0002 YYXZ=              4.0889 ZZXY=             -0.0005
 N-N= 3.025453739451D+02 E-N=-1.232451385905D+03  KE= 2.686932075182D+02
 1\1\GINC-TACHAS\FOpt\RB3LYP\3-21G\C7H10\LEOS\20-Oct-2019\0\\# opt=modr
 edundant b3lyp/3-21g geom=connectivity\\Title Card Required\\0,1\C,-0.
 2182314304,-1.1457595006,0.3392076268\C,-1.1998360949,-0.6721444101,-0
 .7183884025\C,-1.2002521023,0.6725469259,-0.7172712977\C,-0.2189210989
 ,1.1450095387,0.3411128155\H,-0.29520306,-2.1737673948,0.6866475905\H,
 -1.7068330491,-1.3240255192,-1.4172709541\H,-1.7076365147,1.325280498,
 -1.4150762555\H,-0.2965323818,2.1723874893,0.6902682597\C,-0.320956869
 5,-0.0012680063,1.3821574359\H,-1.2924603996,-0.0019746643,1.886922540
 2\H,0.4956969002,-0.0016300669,2.1102780833\C,1.3058104882,-0.77339305
 19,-0.3154980035\H,1.3873122739,-1.2102616609,-1.311265657\H,2.0736600
 452,-1.1891679413,0.341779057\C,1.3053011519,0.7746650654,-0.314319488
 9\H,2.0730372398,1.189974777,0.3433710651\H,1.386265492,1.2130626221,-
 1.3094654848\\Version=ES64L-G16RevB.01\State=1-A\HF=-271.2453816\RMSD=
 3.724e-09\RMSF=8.724e-03\Dipole=0.1212497,0.0000412,-0.0067307\Quadrup
 ole=-1.0338322,0.8252214,0.2086108,-0.0013828,0.9808055,0.0008341\PG=C
 01 [X(C7H10)]\\@


 "PERFECTION IS NOT AN ACCIDENT"
         --  EAGLE ELECTRIC MANUFACTURING CO.,INC. NY
 Job cpu time:       0 days  0 hours  1 minutes 25.9 seconds.
 Elapsed time:       0 days  0 hours  0 minutes 43.1 seconds.
 File lengths (MBytes):  RWF=     10 Int=      0 D2E=      0 Chk=      2 Scr=      1
 Normal termination of Gaussian 16 at Sun Oct 20 19:28:56 2019.
