 Entering Gaussian System, Link 0=g16
 Input=/home/leos/jsmolpage/PDB/Ciclo/C1.9.com
 Output=/home/leos/jsmolpage/PDB/Ciclo/C1.9.log
 Initial command:
 /opt/g16/l1.exe "/tmp/Gau-7682.inp" -scrdir="/tmp/"
 Entering Link 1 = /opt/g16/l1.exe PID=      7685.
  
 Copyright (c) 1988-2017, Gaussian, Inc.  All Rights Reserved.
  
 This is part of the Gaussian(R) 16 program.  It is based on
 the Gaussian(R) 09 system (copyright 2009, Gaussian, Inc.),
 the Gaussian(R) 03 system (copyright 2003, Gaussian, Inc.),
 the Gaussian(R) 98 system (copyright 1998, Gaussian, Inc.),
 the Gaussian(R) 94 system (copyright 1995, Gaussian, Inc.),
 the Gaussian 92(TM) system (copyright 1992, Gaussian, Inc.),
 the Gaussian 90(TM) system (copyright 1990, Gaussian, Inc.),
 the Gaussian 88(TM) system (copyright 1988, Gaussian, Inc.),
 the Gaussian 86(TM) system (copyright 1986, Carnegie Mellon
 University), and the Gaussian 82(TM) system (copyright 1983,
 Carnegie Mellon University). Gaussian is a federally registered
 trademark of Gaussian, Inc.
  
 This software contains proprietary and confidential information,
 including trade secrets, belonging to Gaussian, Inc.
  
 This software is provided under written license and may be
 used, copied, transmitted, or stored only in accord with that
 written license.
  
 The following legend is applicable only to US Government
 contracts under FAR:
  
                    RESTRICTED RIGHTS LEGEND
  
 Use, reproduction and disclosure by the US Government is
 subject to restrictions as set forth in subparagraphs (a)
 and (c) of the Commercial Computer Software - Restricted
 Rights clause in FAR 52.227-19.
  
 Gaussian, Inc.
 340 Quinnipiac St., Bldg. 40, Wallingford CT 06492
  
  
 ---------------------------------------------------------------
 Warning -- This program may not be used in any manner that
 competes with the business of Gaussian, Inc. or will provide
 assistance to any competitor of Gaussian, Inc.  The licensee
 of this program is prohibited from giving any competitor of
 Gaussian, Inc. access to this program.  By using this program,
 the user acknowledges that Gaussian, Inc. is engaged in the
 business of creating and licensing software in the field of
 computational chemistry and represents and warrants to the
 licensee that it is not a competitor of Gaussian, Inc. and that
 it will not use this program in any manner prohibited above.
 ---------------------------------------------------------------
  

 Cite this work as:
 Gaussian 16, Revision B.01,
 M. J. Frisch, G. W. Trucks, H. B. Schlegel, G. E. Scuseria, 
 M. A. Robb, J. R. Cheeseman, G. Scalmani, V. Barone, 
 G. A. Petersson, H. Nakatsuji, X. Li, M. Caricato, A. V. Marenich, 
 J. Bloino, B. G. Janesko, R. Gomperts, B. Mennucci, H. P. Hratchian, 
 J. V. Ortiz, A. F. Izmaylov, J. L. Sonnenberg, D. Williams-Young, 
 F. Ding, F. Lipparini, F. Egidi, J. Goings, B. Peng, A. Petrone, 
 T. Henderson, D. Ranasinghe, V. G. Zakrzewski, J. Gao, N. Rega, 
 G. Zheng, W. Liang, M. Hada, M. Ehara, K. Toyota, R. Fukuda, 
 J. Hasegawa, M. Ishida, T. Nakajima, Y. Honda, O. Kitao, H. Nakai, 
 T. Vreven, K. Throssell, J. A. Montgomery, Jr., J. E. Peralta, 
 F. Ogliaro, M. J. Bearpark, J. J. Heyd, E. N. Brothers, K. N. Kudin, 
 V. N. Staroverov, T. A. Keith, R. Kobayashi, J. Normand, 
 K. Raghavachari, A. P. Rendell, J. C. Burant, S. S. Iyengar, 
 J. Tomasi, M. Cossi, J. M. Millam, M. Klene, C. Adamo, R. Cammi, 
 J. W. Ochterski, R. L. Martin, K. Morokuma, O. Farkas, 
 J. B. Foresman, and D. J. Fox, Gaussian, Inc., Wallingford CT, 2016.
 
 ******************************************
 Gaussian 16:  ES64L-G16RevB.01 20-Dec-2017
                20-Oct-2019 
 ******************************************
 %nprocshared=2
 Will use up to    2 processors via shared memory.
 %mem=6GB
 %chk=C3.chk
 ------------------------------------------------
 # opt=modredundant b3lyp/3-21g geom=connectivity
 ------------------------------------------------
 1/18=120,19=15,26=3,38=1,57=2/1,3;
 2/9=110,12=2,17=6,18=5,40=1/2;
 3/5=5,11=2,25=1,30=1,71=1,74=-5/1,2,3;
 4//1;
 5/5=2,38=5/2;
 6/7=2,8=2,9=2,10=2,28=1/1;
 7//1,2,3,16;
 1/18=20,19=15,26=3/3(2);
 2/9=110/2;
 99//99;
 2/9=110/2;
 3/5=5,11=2,25=1,30=1,71=1,74=-5/1,2,3;
 4/5=5,16=3,69=1/1;
 5/5=2,38=5/2;
 7//1,2,3,16;
 1/18=20,19=15,26=3/3(-5);
 2/9=110/2;
 6/7=2,8=2,9=2,10=2,19=2,28=1/1;
 99/9=1/99;
 -------------------
 Title Card Required
 -------------------
 Symbolic Z-matrix:
 Charge =  0 Multiplicity = 1
 C                    -0.79369   1.18537  -0.33569 
 C                    -1.11924   0.73143   0.89728 
 C                    -1.11909  -0.73982   0.89047 
 C                    -0.79293  -1.18231  -0.34652 
 H                    -0.72426   2.21635  -0.65178 
 H                    -1.32329   1.33641   1.76992 
 H                    -1.32313  -1.35292   1.75743 
 H                    -0.7233   -2.21038  -0.67191 
 C                    -0.66368   0.00577  -1.28383 
 H                    -1.50946   0.00868  -1.99091 
 H                     0.26287   0.00925  -1.8612 
 C                     1.04606   0.84483  -0.00502 
 H                     1.84769   1.23853   1.0734 
 H                     2.2045    1.24206  -0.73138 
 C                     1.04598  -0.84459  -0.00838 
 H                     2.20406  -1.24443  -0.73004 
 H                     1.84698  -1.23871   1.0746 
 
 Add virtual bond connecting atoms C12        and C1         Dist= 3.59D+00.
 Add virtual bond connecting atoms C15        and C4         Dist= 3.59D+00.
 The following ModRedundant input section has been read:
 B       4      15 F                                                           
 B       1      12 F                                                           
 

 GradGradGradGradGradGradGradGradGradGradGradGradGradGradGradGradGradGrad
 Berny optimization.
 Initialization pass.
                           ----------------------------
                           !    Initial Parameters    !
                           ! (Angstroms and Degrees)  !
 --------------------------                            --------------------------
 ! Name  Definition              Value          Derivative Info.                !
 --------------------------------------------------------------------------------
 ! R1    R(1,2)                  1.3536         estimate D2E/DX2                !
 ! R2    R(1,5)                  1.0806         estimate D2E/DX2                !
 ! R3    R(1,9)                  1.519          estimate D2E/DX2                !
 ! R4    R(1,12)                 1.9            Frozen                          !
 ! R5    R(2,3)                  1.4713         estimate D2E/DX2                !
 ! R6    R(2,6)                  1.0813         estimate D2E/DX2                !
 ! R7    R(3,4)                  1.3536         estimate D2E/DX2                !
 ! R8    R(3,7)                  1.0813         estimate D2E/DX2                !
 ! R9    R(4,8)                  1.0806         estimate D2E/DX2                !
 ! R10   R(4,9)                  1.5188         estimate D2E/DX2                !
 ! R11   R(4,15)                 1.9            Frozen                          !
 ! R12   R(9,10)                 1.1024         estimate D2E/DX2                !
 ! R13   R(9,11)                 1.0917         estimate D2E/DX2                !
 ! R14   R(12,13)                1.4002         estimate D2E/DX2                !
 ! R15   R(12,14)                1.4239         estimate D2E/DX2                !
 ! R16   R(12,15)                1.6894         estimate D2E/DX2                !
 ! R17   R(15,16)                1.4219         estimate D2E/DX2                !
 ! R18   R(15,17)                1.4035         estimate D2E/DX2                !
 ! A1    A(2,1,5)              127.0035         estimate D2E/DX2                !
 ! A2    A(2,1,9)              109.191          estimate D2E/DX2                !
 ! A3    A(2,1,12)              90.816          estimate D2E/DX2                !
 ! A4    A(5,1,9)              123.5619         estimate D2E/DX2                !
 ! A5    A(5,1,12)              99.1894         estimate D2E/DX2                !
 ! A6    A(9,1,12)              83.4866         estimate D2E/DX2                !
 ! A7    A(1,2,3)              109.3362         estimate D2E/DX2                !
 ! A8    A(1,2,6)              126.362          estimate D2E/DX2                !
 ! A9    A(3,2,6)              124.281          estimate D2E/DX2                !
 ! A10   A(2,3,4)              109.3381         estimate D2E/DX2                !
 ! A11   A(2,3,7)              124.2827         estimate D2E/DX2                !
 ! A12   A(4,3,7)              126.358          estimate D2E/DX2                !
 ! A13   A(3,4,8)              126.9922         estimate D2E/DX2                !
 ! A14   A(3,4,9)              109.1931         estimate D2E/DX2                !
 ! A15   A(3,4,15)              90.7143         estimate D2E/DX2                !
 ! A16   A(8,4,9)              123.5673         estimate D2E/DX2                !
 ! A17   A(8,4,15)              99.2262         estimate D2E/DX2                !
 ! A18   A(9,4,15)              83.5936         estimate D2E/DX2                !
 ! A19   A(1,9,4)              102.4141         estimate D2E/DX2                !
 ! A20   A(1,9,10)             109.4285         estimate D2E/DX2                !
 ! A21   A(1,9,11)             113.5958         estimate D2E/DX2                !
 ! A22   A(4,9,10)             109.4265         estimate D2E/DX2                !
 ! A23   A(4,9,11)             113.6469         estimate D2E/DX2                !
 ! A24   A(10,9,11)            108.1745         estimate D2E/DX2                !
 ! A25   A(1,12,13)            129.6425         estimate D2E/DX2                !
 ! A26   A(1,12,14)            130.4667         estimate D2E/DX2                !
 ! A27   A(1,12,15)            100.3025         estimate D2E/DX2                !
 ! A28   A(13,12,14)            81.2961         estimate D2E/DX2                !
 ! A29   A(13,12,15)           106.4235         estimate D2E/DX2                !
 ! A30   A(14,12,15)           106.1408         estimate D2E/DX2                !
 ! A31   A(4,15,12)            100.2617         estimate D2E/DX2                !
 ! A32   A(4,15,16)            130.3884         estimate D2E/DX2                !
 ! A33   A(4,15,17)            129.7756         estimate D2E/DX2                !
 ! A34   A(12,15,16)           106.3901         estimate D2E/DX2                !
 ! A35   A(12,15,17)           106.2154         estimate D2E/DX2                !
 ! A36   A(16,15,17)            81.2477         estimate D2E/DX2                !
 ! D1    D(5,1,2,3)            179.0338         estimate D2E/DX2                !
 ! D2    D(5,1,2,6)             -2.5772         estimate D2E/DX2                !
 ! D3    D(9,1,2,3)              4.5857         estimate D2E/DX2                !
 ! D4    D(9,1,2,6)           -177.0253         estimate D2E/DX2                !
 ! D5    D(12,1,2,3)           -78.8012         estimate D2E/DX2                !
 ! D6    D(12,1,2,6)            99.5878         estimate D2E/DX2                !
 ! D7    D(2,1,9,4)             -6.9373         estimate D2E/DX2                !
 ! D8    D(2,1,9,10)           109.0877         estimate D2E/DX2                !
 ! D9    D(2,1,9,11)          -129.9156         estimate D2E/DX2                !
 ! D10   D(5,1,9,4)            178.3828         estimate D2E/DX2                !
 ! D11   D(5,1,9,10)           -65.5922         estimate D2E/DX2                !
 ! D12   D(5,1,9,11)            55.4045         estimate D2E/DX2                !
 ! D13   D(12,1,9,4)            81.6553         estimate D2E/DX2                !
 ! D14   D(12,1,9,10)         -162.3197         estimate D2E/DX2                !
 ! D15   D(12,1,9,11)          -41.323          estimate D2E/DX2                !
 ! D16   D(2,1,12,13)          -51.5635         estimate D2E/DX2                !
 ! D17   D(2,1,12,14)         -168.2097         estimate D2E/DX2                !
 ! D18   D(2,1,12,15)           70.0233         estimate D2E/DX2                !
 ! D19   D(5,1,12,13)           76.1747         estimate D2E/DX2                !
 ! D20   D(5,1,12,14)          -40.4714         estimate D2E/DX2                !
 ! D21   D(5,1,12,15)         -162.2385         estimate D2E/DX2                !
 ! D22   D(9,1,12,13)         -160.7874         estimate D2E/DX2                !
 ! D23   D(9,1,12,14)           82.5664         estimate D2E/DX2                !
 ! D24   D(9,1,12,15)          -39.2006         estimate D2E/DX2                !
 ! D25   D(1,2,3,4)              0.024          estimate D2E/DX2                !
 ! D26   D(1,2,3,7)            178.4371         estimate D2E/DX2                !
 ! D27   D(6,2,3,4)           -178.4059         estimate D2E/DX2                !
 ! D28   D(6,2,3,7)              0.0072         estimate D2E/DX2                !
 ! D29   D(2,3,4,8)           -179.0282         estimate D2E/DX2                !
 ! D30   D(2,3,4,9)             -4.6237         estimate D2E/DX2                !
 ! D31   D(2,3,4,15)            78.841          estimate D2E/DX2                !
 ! D32   D(7,3,4,8)              2.6            estimate D2E/DX2                !
 ! D33   D(7,3,4,9)            177.0045         estimate D2E/DX2                !
 ! D34   D(7,3,4,15)           -99.5308         estimate D2E/DX2                !
 ! D35   D(3,4,9,1)              6.9522         estimate D2E/DX2                !
 ! D36   D(3,4,9,10)          -109.0743         estimate D2E/DX2                !
 ! D37   D(3,4,9,11)           129.8961         estimate D2E/DX2                !
 ! D38   D(8,4,9,1)           -178.4109         estimate D2E/DX2                !
 ! D39   D(8,4,9,10)            65.5627         estimate D2E/DX2                !
 ! D40   D(8,4,9,11)           -55.4669         estimate D2E/DX2                !
 ! D41   D(15,4,9,1)           -81.5694         estimate D2E/DX2                !
 ! D42   D(15,4,9,10)          162.4042         estimate D2E/DX2                !
 ! D43   D(15,4,9,11)           41.3746         estimate D2E/DX2                !
 ! D44   D(3,4,15,12)          -70.3468         estimate D2E/DX2                !
 ! D45   D(3,4,15,16)          167.6135         estimate D2E/DX2                !
 ! D46   D(3,4,15,17)           50.9826         estimate D2E/DX2                !
 ! D47   D(8,4,15,12)          161.9433         estimate D2E/DX2                !
 ! D48   D(8,4,15,16)           39.9035         estimate D2E/DX2                !
 ! D49   D(8,4,15,17)          -76.7274         estimate D2E/DX2                !
 ! D50   D(9,4,15,12)           38.8882         estimate D2E/DX2                !
 ! D51   D(9,4,15,16)          -83.1515         estimate D2E/DX2                !
 ! D52   D(9,4,15,17)          160.2176         estimate D2E/DX2                !
 ! D53   D(1,12,15,4)            0.189          estimate D2E/DX2                !
 ! D54   D(1,12,15,16)         137.8899         estimate D2E/DX2                !
 ! D55   D(1,12,15,17)        -136.678          estimate D2E/DX2                !
 ! D56   D(13,12,15,4)         137.0431         estimate D2E/DX2                !
 ! D57   D(13,12,15,16)        -85.2561         estimate D2E/DX2                !
 ! D58   D(13,12,15,17)          0.176          estimate D2E/DX2                !
 ! D59   D(14,12,15,4)        -137.4842         estimate D2E/DX2                !
 ! D60   D(14,12,15,16)          0.2166         estimate D2E/DX2                !
 ! D61   D(14,12,15,17)         85.6487         estimate D2E/DX2                !
 --------------------------------------------------------------------------------
 Trust Radius=3.00D-01 FncErr=1.00D-07 GrdErr=1.00D-06 EigMax=2.50D+02 EigMin=1.00D-04
 Number of steps in this run=    102 maximum allowed number of steps=    102.
 GradGradGradGradGradGradGradGradGradGradGradGradGradGradGradGradGradGrad

                          Input orientation:                          
 ---------------------------------------------------------------------
 Center     Atomic      Atomic             Coordinates (Angstroms)
 Number     Number       Type             X           Y           Z
 ---------------------------------------------------------------------
      1          6           0       -0.793692    1.185372   -0.335690
      2          6           0       -1.119238    0.731433    0.897277
      3          6           0       -1.119089   -0.739821    0.890465
      4          6           0       -0.792932   -1.182308   -0.346523
      5          1           0       -0.724258    2.216348   -0.651778
      6          1           0       -1.323294    1.336406    1.769924
      7          1           0       -1.323127   -1.352915    1.757429
      8          1           0       -0.723300   -2.210380   -0.671910
      9          6           0       -0.663676    0.005770   -1.283827
     10          1           0       -1.509459    0.008682   -1.990906
     11          1           0        0.262871    0.009247   -1.861203
     12          6           0        1.046059    0.844825   -0.005015
     13          1           0        1.847686    1.238528    1.073403
     14          1           0        2.204501    1.242055   -0.731379
     15          6           0        1.045983   -0.844588   -0.008384
     16          1           0        2.204064   -1.244430   -0.730043
     17          1           0        1.846983   -1.238710    1.074604
 ---------------------------------------------------------------------
                    Distance matrix (angstroms):
                    1          2          3          4          5
     1  C    0.000000
     2  C    1.353606   0.000000
     3  C    2.305582   1.471270   0.000000
     4  C    2.367705   2.305628   1.353629   0.000000
     5  H    1.080576   2.181869   3.357580   3.413028   0.000000
     6  H    2.176442   1.081270   2.264038   3.332349   2.645332
     7  H    3.332319   2.264054   1.081269   2.176425   4.347708
     8  H    3.413082   3.357585   2.181790   1.080582   4.426774
     9  C    1.518989   2.343360   2.343257   1.518807   2.299959
    10  H    2.153291   3.002706   3.002490   2.153106   2.698813
    11  H    2.196995   3.168752   3.169005   2.197448   2.703410
    12  C    1.900000   2.348510   2.828578   2.758221   2.330965
    13  H    2.994202   3.015096   3.570586   3.853505   3.247657
    14  H    3.024722   3.736375   4.195767   3.874307   3.087590
    15  C    2.759034   2.827056   2.346581   1.900000   3.594028
    16  H    3.878916   4.194823   3.731491   3.022074   4.534113
    17  H    3.852047   3.565302   3.013367   2.998655   4.639946
                    6          7          8          9         10
     6  H    0.000000
     7  H    2.689350   0.000000
     8  H    4.347670   2.645133   0.000000
     9  C    3.395745   3.395606   2.299852   0.000000
    10  H    3.992662   3.992328   2.698524   1.102415   0.000000
    11  H    4.178798   4.179159   2.704384   1.091725   1.777070
    12  C    3.000982   3.680939   3.593001   2.294028   3.342689
    13  H    3.248051   4.151810   4.642311   3.658301   4.708814
    14  H    4.325593   5.037082   4.527125   3.171756   4.111097
    15  C    3.678667   2.998195   2.331526   2.296257   3.344958
    16  H    5.035157   4.317449   3.083164   3.177044   4.117076
    17  H    4.143109   3.244825   3.255888   3.662559   4.713708
                   11         12         13         14         15
    11  H    0.000000
    12  C    2.181056   0.000000
    13  H    3.554530   1.400212   0.000000
    14  H    2.562469   1.423862   1.839719   0.000000
    15  C    2.185232   1.689417   2.480396   2.493786   0.000000
    16  H    2.572831   2.496323   3.089418   2.486485   1.421906
    17  H    3.561709   2.479552   2.477238   3.089270   1.403494
                   16         17
    16  H    0.000000
    17  H    1.839644   0.000000
 Stoichiometry    C7H10
 Framework group  C1[X(C7H10)]
 Deg. of freedom    45
 Full point group                 C1      NOp   1
 Largest Abelian subgroup         C1      NOp   1
 Largest concise Abelian subgroup C1      NOp   1
                         Standard orientation:                         
 ---------------------------------------------------------------------
 Center     Atomic      Atomic             Coordinates (Angstroms)
 Number     Number       Type             X           Y           Z
 ---------------------------------------------------------------------
      1          6           0       -0.493485   -1.185169    0.410910
      2          6           0       -1.072665   -0.734016   -0.726306
      3          6           0       -1.073118    0.737248   -0.722247
      4          6           0       -0.493733    1.182527    0.417205
      5          1           0       -0.357446   -2.215442    0.707009
      6          1           0       -1.455546   -1.340933   -1.535131
      7          1           0       -1.456468    1.348406   -1.527648
      8          1           0       -0.358388    2.211316    0.718756
      9          6           0       -0.167831   -0.003547    1.308154
     10          1           0       -0.845236   -0.005879    2.177887
     11          1           0        0.859745   -0.004957    1.676870
     12          6           0        1.234488   -0.843472   -0.301378
     13          1           0        1.790872   -1.238540   -1.524060
     14          1           0        2.520734   -1.238109    0.164687
     15          6           0        1.232786    0.845944   -0.301019
     16          1           0        2.516582    1.248367    0.159133
     17          1           0        1.786502    1.238688   -1.529411
 ---------------------------------------------------------------------
 Rotational constants (GHZ):           3.5848950           3.3066327           2.8262617
 Standard basis: 3-21G (6D, 7F)
 There are    83 symmetry adapted cartesian basis functions of A   symmetry.
 There are    83 symmetry adapted basis functions of A   symmetry.
    83 basis functions,   135 primitive gaussians,    83 cartesian basis functions
    26 alpha electrons       26 beta electrons
       nuclear repulsion energy       297.7163801877 Hartrees.
 NAtoms=   17 NActive=   17 NUniq=   17 SFac= 1.00D+00 NAtFMM=   60 NAOKFM=F Big=F
 Integral buffers will be    131072 words long.
 Raffenetti 2 integral format.
 Two-electron integral symmetry is turned on.
 One-electron integrals computed using PRISM.
 NBasis=    83 RedAO= T EigKep=  4.21D-03  NBF=    83
 NBsUse=    83 1.00D-06 EigRej= -1.00D+00 NBFU=    83
 ExpMin= 1.83D-01 ExpMax= 1.72D+02 ExpMxC= 1.72D+02 IAcc=3 IRadAn=         5 AccDes= 0.00D+00
 Harris functional with IExCor=  402 and IRadAn=       5 diagonalized for initial guess.
 HarFok:  IExCor=  402 AccDes= 0.00D+00 IRadAn=         5 IDoV= 1 UseB2=F ITyADJ=14
 ICtDFT=  3500011 ScaDFX=  1.000000  1.000000  1.000000  1.000000
 FoFCou: FMM=F IPFlag=           0 FMFlag=      100000 FMFlg1=           0
         NFxFlg=           0 DoJE=T BraDBF=F KetDBF=T FulRan=T
         wScrn=  0.000000 ICntrl=       500 IOpCl=  0 I1Cent=   200000004 NGrid=           0
         NMat0=    1 NMatS0=      1 NMatT0=    0 NMatD0=    1 NMtDS0=    0 NMtDT0=    0
 Petite list used in FoFCou.
 Keep R1 ints in memory in canonical form, NReq=7891700.
 Requested convergence on RMS density matrix=1.00D-08 within 128 cycles.
 Requested convergence on MAX density matrix=1.00D-06.
 Requested convergence on             energy=1.00D-06.
 No special actions if energy rises.
 Integral accuracy reduced to 1.0D-05 until final iterations.
 Initial convergence to 1.0D-05 achieved.  Increase integral accuracy.
 SCF Done:  E(RB3LYP) =  -270.924525359     A.U. after   15 cycles
            NFock= 15  Conv=0.49D-08     -V/T= 2.0113

 **********************************************************************

            Population analysis using the SCF Density.

 **********************************************************************

 Orbital symmetries:
       Occupied  (A) (A) (A) (A) (A) (A) (A) (A) (A) (A) (A) (A)
                 (A) (A) (A) (A) (A) (A) (A) (A) (A) (A) (A) (A)
                 (A) (A)
       Virtual   (A) (A) (A) (A) (A) (A) (A) (A) (A) (A) (A) (A)
                 (A) (A) (A) (A) (A) (A) (A) (A) (A) (A) (A) (A)
                 (A) (A) (A) (A) (A) (A) (A) (A) (A) (A) (A) (A)
                 (A) (A) (A) (A) (A) (A) (A) (A) (A) (A) (A) (A)
                 (A) (A) (A) (A) (A) (A) (A) (A) (A)
 The electronic state is 1-A.
 Alpha  occ. eigenvalues --  -10.17031 -10.16982 -10.15823 -10.15760 -10.13442
 Alpha  occ. eigenvalues --  -10.13312 -10.13198  -0.90061  -0.74877  -0.72176
 Alpha  occ. eigenvalues --   -0.65938  -0.56929  -0.55402  -0.53387  -0.49701
 Alpha  occ. eigenvalues --   -0.46324  -0.42514  -0.39458  -0.37877  -0.37705
 Alpha  occ. eigenvalues --   -0.36704  -0.31340  -0.30951  -0.28604  -0.23782
 Alpha  occ. eigenvalues --   -0.18979
 Alpha virt. eigenvalues --   -0.03002   0.02803   0.05764   0.08097   0.08378
 Alpha virt. eigenvalues --    0.12604   0.14699   0.17079   0.17656   0.17832
 Alpha virt. eigenvalues --    0.17960   0.18984   0.19491   0.20776   0.22038
 Alpha virt. eigenvalues --    0.24040   0.36139   0.38844   0.45355   0.67058
 Alpha virt. eigenvalues --    0.67073   0.70918   0.72015   0.73203   0.73948
 Alpha virt. eigenvalues --    0.76900   0.79199   0.82340   0.82859   0.84910
 Alpha virt. eigenvalues --    0.85336   0.89159   0.91286   0.92235   0.94627
 Alpha virt. eigenvalues --    0.95186   0.98339   1.02009   1.02308   1.03119
 Alpha virt. eigenvalues --    1.04813   1.05897   1.10553   1.12445   1.12978
 Alpha virt. eigenvalues --    1.23274   1.25159   1.36188   1.37690   1.44944
 Alpha virt. eigenvalues --    1.45306   1.84064   1.90143   1.94373   2.23825
 Alpha virt. eigenvalues --    2.25793   2.37250
          Condensed to atoms (all electrons):
               1          2          3          4          5          6
     1  C    5.508842   0.291636  -0.104452  -0.112595   0.397679  -0.041878
     2  C    0.291636   5.291515   0.524656  -0.104519  -0.031414   0.395810
     3  C   -0.104452   0.524656   5.291872   0.291398   0.003908  -0.026629
     4  C   -0.112595  -0.104519   0.291398   5.509445   0.002584   0.003296
     5  H    0.397679  -0.031414   0.003908   0.002584   0.451447  -0.001932
     6  H   -0.041878   0.395810  -0.026629   0.003296  -0.001932   0.477953
     7  H    0.003296  -0.026594   0.395784  -0.041888  -0.000038  -0.001005
     8  H    0.002586   0.003906  -0.031398   0.397631  -0.000014  -0.000038
     9  C    0.281137  -0.119723  -0.119810   0.281002  -0.022741   0.004476
    10  H   -0.040275   0.003533   0.003521  -0.040233  -0.001881  -0.000101
    11  H   -0.038180   0.005502   0.005498  -0.038041   0.000108  -0.000062
    12  C    0.190772  -0.115019  -0.026779  -0.047756  -0.019935  -0.001090
    13  H   -0.008356  -0.000715   0.000054   0.000839   0.000091   0.000245
    14  H   -0.003920   0.001721   0.000711   0.001056   0.000242  -0.000003
    15  C   -0.047680  -0.026942  -0.115590   0.190766   0.000556  -0.000113
    16  H    0.001052   0.000713   0.001733  -0.003999   0.000004   0.000001
    17  H    0.000832   0.000029  -0.000722  -0.008257  -0.000002   0.000008
               7          8          9         10         11         12
     1  C    0.003296   0.002586   0.281137  -0.040275  -0.038180   0.190772
     2  C   -0.026594   0.003906  -0.119723   0.003533   0.005502  -0.115019
     3  C    0.395784  -0.031398  -0.119810   0.003521   0.005498  -0.026779
     4  C   -0.041888   0.397631   0.281002  -0.040233  -0.038041  -0.047756
     5  H   -0.000038  -0.000014  -0.022741  -0.001881   0.000108  -0.019935
     6  H   -0.001005  -0.000038   0.004476  -0.000101  -0.000062  -0.001090
     7  H    0.477809  -0.001932   0.004475  -0.000101  -0.000062  -0.000113
     8  H   -0.001932   0.451420  -0.022758  -0.001881   0.000104   0.000554
     9  C    0.004475  -0.022758   5.560948   0.346381   0.398757  -0.117874
    10  H   -0.000101  -0.001881   0.346381   0.544972  -0.026752   0.007455
    11  H   -0.000062   0.000104   0.398757  -0.026752   0.476327  -0.025140
    12  C   -0.000113   0.000554  -0.117874   0.007455  -0.025140   5.580531
    13  H    0.000008  -0.000002   0.002069  -0.000041   0.000436   0.314655
    14  H    0.000001   0.000004  -0.002359  -0.000051   0.002588   0.293120
    15  C   -0.001102  -0.019889  -0.116976   0.007398  -0.025048   0.270939
    16  H   -0.000003   0.000246  -0.002231  -0.000052   0.002508  -0.025614
    17  H    0.000248   0.000087   0.002040  -0.000040   0.000432  -0.026859
              13         14         15         16         17
     1  C   -0.008356  -0.003920  -0.047680   0.001052   0.000832
     2  C   -0.000715   0.001721  -0.026942   0.000713   0.000029
     3  C    0.000054   0.000711  -0.115590   0.001733  -0.000722
     4  C    0.000839   0.001056   0.190766  -0.003999  -0.008257
     5  H    0.000091   0.000242   0.000556   0.000004  -0.000002
     6  H    0.000245  -0.000003  -0.000113   0.000001   0.000008
     7  H    0.000008   0.000001  -0.001102  -0.000003   0.000248
     8  H   -0.000002   0.000004  -0.019889   0.000246   0.000087
     9  C    0.002069  -0.002359  -0.116976  -0.002231   0.002040
    10  H   -0.000041  -0.000051   0.007398  -0.000052  -0.000040
    11  H    0.000436   0.002588  -0.025048   0.002508   0.000432
    12  C    0.314655   0.293120   0.270939  -0.025614  -0.026859
    13  H    0.689958  -0.054908  -0.026695   0.003123  -0.005312
    14  H   -0.054908   0.707771  -0.025841  -0.001163   0.003147
    15  C   -0.026695  -0.025841   5.580070   0.293383   0.314166
    16  H    0.003123  -0.001163   0.293383   0.706026  -0.054920
    17  H   -0.005312   0.003147   0.314166  -0.054920   0.691783
 Mulliken charges:
               1
     1  C   -0.280496
     2  C   -0.094095
     3  C   -0.093755
     4  C   -0.280730
     5  H    0.221339
     6  H    0.191062
     7  H    0.191216
     8  H    0.221374
     9  C   -0.356812
    10  H    0.198151
    11  H    0.261026
    12  C   -0.251846
    13  H    0.084551
    14  H    0.077884
    15  C   -0.251401
    16  H    0.079193
    17  H    0.083340
 Sum of Mulliken charges =   0.00000
 Mulliken charges with hydrogens summed into heavy atoms:
               1
     1  C   -0.059156
     2  C    0.096967
     3  C    0.097461
     4  C   -0.059357
     9  C    0.102365
    12  C   -0.089411
    15  C   -0.088868
 Electronic spatial extent (au):  <R**2>=            632.0201
 Charge=              0.0000 electrons
 Dipole moment (field-independent basis, Debye):
    X=             -0.9666    Y=              0.0048    Z=              0.5093  Tot=              1.0926
 Quadrupole moment (field-independent basis, Debye-Ang):
   XX=            -46.3458   YY=            -42.6205   ZZ=            -43.8243
   XY=              0.0017   XZ=              0.9848   YZ=              0.0138
 Traceless Quadrupole moment (field-independent basis, Debye-Ang):
   XX=             -2.0823   YY=              1.6430   ZZ=              0.4392
   XY=              0.0017   XZ=              0.9848   YZ=              0.0138
 Octapole moment (field-independent basis, Debye-Ang**2):
  XXX=              1.5880  YYY=             -0.0106  ZZZ=              1.7119  XYY=             -7.4060
  XXY=              0.0520  XXZ=             -3.3708  XZZ=             -5.0473  YZZ=             -0.0070
  YYZ=              1.5063  XYZ=              0.0099
 Hexadecapole moment (field-independent basis, Debye-Ang**3):
 XXXX=           -365.3489 YYYY=           -282.5208 ZZZZ=           -225.4118 XXXY=              0.0617
 XXXZ=              0.8993 YYYX=             -0.0158 YYYZ=              0.0840 ZZZX=              7.0108
 ZZZY=              0.0579 XXYY=           -110.4201 XXZZ=            -92.0797 YYZZ=            -84.0539
 XXYZ=              0.0008 YYXZ=              3.9905 ZZXY=             -0.0145
 N-N= 2.977163801877D+02 E-N=-1.221235318541D+03  KE= 2.678886522030D+02
 Calling FoFJK, ICntrl=      2127 FMM=F ISym2X=0 I1Cent= 0 IOpClX= 0 NMat=1 NMatS=1 NMatT=0.
 ***** Axes restored to original set *****
 -------------------------------------------------------------------
 Center     Atomic                   Forces (Hartrees/Bohr)
 Number     Number              X              Y              Z
 -------------------------------------------------------------------
      1        6           0.116032245    0.020646342   -0.047702056
      2        6          -0.055706346   -0.094968172    0.077779726
      3        6          -0.055822062    0.094341495    0.078650146
      4        6           0.115891099   -0.020279416   -0.047571668
      5        1          -0.014774928    0.000000125   -0.003927019
      6        1           0.002921725   -0.001653562   -0.000336362
      7        1           0.002939105    0.001647457   -0.000319702
      8        1          -0.014741753    0.000029367   -0.003920619
      9        6          -0.062418660    0.000207672   -0.055178734
     10        1          -0.004114167   -0.000033297   -0.002677927
     11        1          -0.008772575   -0.000081202   -0.003990936
     12        6           0.135965847    0.003437962    0.034265496
     13        1          -0.069386428   -0.018954726   -0.042952575
     14        1          -0.077221270   -0.022242095    0.013299384
     15        6           0.135815049   -0.003476780    0.034857490
     16        1          -0.077196991    0.022699942    0.012984375
     17        1          -0.069409888    0.018678891   -0.043259020
 -------------------------------------------------------------------
 Cartesian Forces:  Max     0.135965847 RMS     0.052928293

 GradGradGradGradGradGradGradGradGradGradGradGradGradGradGradGradGradGrad
 Berny optimization.
 FormGI is forming the generalized inverse of G from B-inverse, IUseBI=4.
 Internal  Forces:  Max     0.091162823 RMS     0.022173193
 Search for a local minimum.
 Step number   1 out of a maximum of  102
 All quantities printed in internal units (Hartrees-Bohrs-Radians)
 Mixed Optimization -- RFO/linear search
 Second derivative matrix not updated -- first step.
 ITU=  0
     Eigenvalues ---    0.00448   0.01408   0.01658   0.01914   0.02326
     Eigenvalues ---    0.02359   0.02793   0.03178   0.03377   0.03653
     Eigenvalues ---    0.03822   0.05278   0.05297   0.05726   0.06747
     Eigenvalues ---    0.07258   0.07806   0.08044   0.08047   0.08379
     Eigenvalues ---    0.10246   0.11649   0.13556   0.13620   0.14248
     Eigenvalues ---    0.14363   0.14536   0.14853   0.15989   0.15992
     Eigenvalues ---    0.16553   0.17728   0.25391   0.27096   0.32756
     Eigenvalues ---    0.33416   0.34614   0.35841   0.35841   0.35924
     Eigenvalues ---    0.35925   0.45713   0.531131000.000001000.00000
     Eigenvalues --- 1000.000001000.000001000.000001000.000001000.00000
     Eigenvalues --- 1000.000001000.000001000.000001000.000001000.00000
     Eigenvalues --- 1000.000001000.000001000.000001000.000001000.00000
     Eigenvalues --- 1000.000001000.000001000.000001000.000001000.00000
     Eigenvalues --- 1000.000001000.000001000.000001000.000001000.00000
     Eigenvalues --- 1000.000001000.000001000.000001000.000001000.00000
     Eigenvalues --- 1000.000001000.000001000.000001000.000001000.00000
     Eigenvalues --- 1000.000001000.000001000.000001000.000001000.00000
     Eigenvalues --- 1000.000001000.000001000.000001000.000001000.00000
     Eigenvalues --- 1000.000001000.000001000.000001000.000001000.00000
     Eigenvalues --- 1000.000001000.000001000.000001000.000001000.00000
     Eigenvalues --- 1000.000001000.000001000.000001000.000001000.00000
     Eigenvalues --- 1000.000001000.000001000.000001000.000001000.00000
     Eigenvalues --- 1000.000001000.000001000.000001000.000001000.00000
 RFO step:  Lambda=-1.58964138D-01 EMin= 4.47872280D-03
 Linear search not attempted -- first point.
 Maximum step size (   0.300) exceeded in Quadratic search.
    -- Step size scaled by   0.482
 Iteration  1 RMS(Cart)=  0.02700753 RMS(Int)=  0.00074084
 Iteration  2 RMS(Cart)=  0.00074633 RMS(Int)=  0.00020294
 Iteration  3 RMS(Cart)=  0.00000057 RMS(Int)=  0.00020294
 Iteration  1 RMS(Cart)=  0.00001232 RMS(Int)=  0.00000086
 Iteration  2 RMS(Cart)=  0.00000012 RMS(Int)=  0.00000087
 Variable       Old X    -DE/DX   Delta X   Delta X   Delta X     New X
                                 (Linear)    (Quad)   (Total)
    R1        2.55794   0.09116   0.00000   0.06281   0.06282   2.62077
    R2        2.04199   0.00020   0.00000   0.00019   0.00019   2.04218
    R3        2.87047   0.00990   0.00000   0.01233   0.01258   2.88306
    R4        3.59048  -0.00849   0.00000   0.00000   0.00000   3.59048
    R5        2.78030  -0.07403   0.00000  -0.06828  -0.06824   2.71206
    R6        2.04330  -0.00175   0.00000  -0.00163  -0.00163   2.04168
    R7        2.55799   0.09115   0.00000   0.06281   0.06282   2.62081
    R8        2.04330  -0.00175   0.00000  -0.00162  -0.00162   2.04168
    R9        2.04200   0.00020   0.00000   0.00019   0.00019   2.04219
   R10        2.87013   0.00985   0.00000   0.01222   0.01248   2.88261
   R11        3.59048  -0.00850   0.00000   0.00000  -0.00000   3.59048
   R12        2.08326   0.00487   0.00000   0.00476   0.00476   2.08802
   R13        2.06306  -0.00533   0.00000  -0.00509  -0.00509   2.05798
   R14        2.64602  -0.07813   0.00000  -0.12435  -0.12435   2.52167
   R15        2.69071  -0.07582   0.00000  -0.12397  -0.12397   2.56674
   R16        3.19254  -0.03183   0.00000  -0.04947  -0.04984   3.14269
   R17        2.68701  -0.07585   0.00000  -0.12375  -0.12375   2.56327
   R18        2.65222  -0.07824   0.00000  -0.12499  -0.12499   2.52723
    A1        2.21663  -0.00306   0.00000  -0.00475  -0.00493   2.21169
    A2        1.90574   0.00833   0.00000   0.01070   0.01005   1.91579
    A3        1.58504   0.00357   0.00000   0.01067   0.01046   1.59549
    A4        2.15656  -0.00696   0.00000  -0.01029  -0.01057   2.14599
    A5        1.73118   0.00389   0.00000   0.00824   0.00820   1.73938
    A6        1.45712   0.01071   0.00000   0.02688   0.02725   1.48437
    A7        1.90828  -0.00085   0.00000  -0.00094  -0.00112   1.90716
    A8        2.20543   0.00119   0.00000   0.00155   0.00161   2.20704
    A9        2.16911  -0.00048   0.00000  -0.00091  -0.00086   2.16826
   A10        1.90831  -0.00092   0.00000  -0.00102  -0.00120   1.90711
   A11        2.16914  -0.00044   0.00000  -0.00086  -0.00081   2.16834
   A12        2.20536   0.00122   0.00000   0.00158   0.00163   2.20700
   A13        2.21643  -0.00299   0.00000  -0.00463  -0.00481   2.21162
   A14        1.90578   0.00839   0.00000   0.01077   0.01013   1.91590
   A15        1.58326   0.00360   0.00000   0.01074   0.01053   1.59380
   A16        2.15666  -0.00710   0.00000  -0.01051  -0.01079   2.14586
   A17        1.73182   0.00394   0.00000   0.00829   0.00826   1.74008
   A18        1.45898   0.01059   0.00000   0.02666   0.02703   1.48601
   A19        1.78746  -0.01852   0.00000  -0.02811  -0.02849   1.75898
   A20        1.90989   0.01277   0.00000   0.02255   0.02264   1.93252
   A21        1.98262  -0.00011   0.00000  -0.00390  -0.00396   1.97867
   A22        1.90985   0.01273   0.00000   0.02246   0.02254   1.93240
   A23        1.98351  -0.00023   0.00000  -0.00412  -0.00417   1.97934
   A24        1.88800  -0.00553   0.00000  -0.00684  -0.00688   1.88112
   A25        2.26269  -0.01621   0.00000  -0.03183  -0.03180   2.23088
   A26        2.27707  -0.01374   0.00000  -0.02702  -0.02699   2.25009
   A27        1.75061   0.00232   0.00000   0.00243   0.00235   1.75296
   A28        1.41888   0.02281   0.00000   0.04742   0.04719   1.46608
   A29        1.85744   0.00444   0.00000   0.01015   0.01016   1.86760
   A30        1.85251   0.00528   0.00000   0.00883   0.00864   1.86115
   A31        1.74990   0.00248   0.00000   0.00267   0.00260   1.75249
   A32        2.27571  -0.01361   0.00000  -0.02670  -0.02667   2.24904
   A33        2.26501  -0.01648   0.00000  -0.03240  -0.03237   2.23264
   A34        1.85686   0.00512   0.00000   0.00851   0.00832   1.86518
   A35        1.85381   0.00446   0.00000   0.01030   0.01032   1.86413
   A36        1.41804   0.02288   0.00000   0.04752   0.04729   1.46533
    D1        3.12473  -0.00342   0.00000  -0.01142  -0.01128   3.11345
    D2       -0.04498  -0.00876   0.00000  -0.02313  -0.02308  -0.06806
    D3        0.08004   0.01608   0.00000   0.03833   0.03868   0.11872
    D4       -3.08967   0.01075   0.00000   0.02661   0.02689  -3.06279
    D5       -1.37534   0.00372   0.00000   0.00641   0.00624  -1.36910
    D6        1.73814  -0.00161   0.00000  -0.00530  -0.00556   1.73258
    D7       -0.12108  -0.02295   0.00000  -0.05584  -0.05554  -0.17661
    D8        1.90394  -0.01237   0.00000  -0.03489  -0.03502   1.86892
    D9       -2.26745  -0.01032   0.00000  -0.03003  -0.03014  -2.29759
   D10        3.11337  -0.00448   0.00000  -0.00849  -0.00814   3.10523
   D11       -1.14480   0.00611   0.00000   0.01246   0.01238  -1.13242
   D12        0.96699   0.00815   0.00000   0.01733   0.01726   0.98425
   D13        1.42515  -0.01641   0.00000  -0.03635  -0.03577   1.38938
   D14       -2.83301  -0.00583   0.00000  -0.01540  -0.01526  -2.84827
   D15       -0.72122  -0.00378   0.00000  -0.01054  -0.01037  -0.73160
   D16       -0.89995   0.00266   0.00000   0.00410   0.00407  -0.89588
   D17       -2.93581   0.00042   0.00000  -0.00518  -0.00518  -2.94100
   D18        1.22214   0.00005   0.00000  -0.00118  -0.00100   1.22114
   D19        1.32950   0.00086   0.00000   0.00272   0.00262   1.33212
   D20       -0.70636  -0.00138   0.00000  -0.00656  -0.00664  -0.71300
   D21       -2.83160  -0.00175   0.00000  -0.00256  -0.00245  -2.83405
   D22       -2.80627  -0.00505   0.00000  -0.00477  -0.00459  -2.81086
   D23        1.44106  -0.00729   0.00000  -0.01405  -0.01384   1.42721
   D24       -0.68418  -0.00765   0.00000  -0.01005  -0.00966  -0.69384
   D25        0.00042  -0.00003   0.00000  -0.00006  -0.00006   0.00036
   D26        3.11432  -0.00519   0.00000  -0.01142  -0.01148   3.10283
   D27       -3.11377   0.00513   0.00000   0.01131   0.01137  -3.10240
   D28        0.00013  -0.00003   0.00000  -0.00005  -0.00005   0.00007
   D29       -3.12463   0.00342   0.00000   0.01141   0.01128  -3.11335
   D30       -0.08070  -0.01606   0.00000  -0.03826  -0.03862  -0.11932
   D31        1.37603  -0.00382   0.00000  -0.00657  -0.00639   1.36964
   D32        0.04538   0.00875   0.00000   0.02312   0.02307   0.06845
   D33        3.08931  -0.01073   0.00000  -0.02656  -0.02683   3.06248
   D34       -1.73714   0.00151   0.00000   0.00514   0.00540  -1.73174
   D35        0.12134   0.02293   0.00000   0.05581   0.05550   0.17684
   D36       -1.90370   0.01232   0.00000   0.03479   0.03492  -1.86878
   D37        2.26711   0.01036   0.00000   0.03012   0.03023   2.29734
   D38       -3.11386   0.00449   0.00000   0.00854   0.00819  -3.10566
   D39        1.14429  -0.00612   0.00000  -0.01248  -0.01239   1.13190
   D40       -0.96808  -0.00807   0.00000  -0.01715  -0.01708  -0.98516
   D41       -1.42365   0.01640   0.00000   0.03630   0.03573  -1.38793
   D42        2.83449   0.00579   0.00000   0.01529   0.01515   2.84964
   D43        0.72212   0.00383   0.00000   0.01062   0.01045   0.73257
   D44       -1.22778   0.00006   0.00000   0.00145   0.00128  -1.22651
   D45        2.92541  -0.00029   0.00000   0.00553   0.00553   2.93094
   D46        0.88981  -0.00247   0.00000  -0.00361  -0.00358   0.88623
   D47        2.82644   0.00179   0.00000   0.00271   0.00260   2.82904
   D48        0.69645   0.00144   0.00000   0.00678   0.00686   0.70331
   D49       -1.33914  -0.00074   0.00000  -0.00236  -0.00226  -1.34140
   D50        0.67873   0.00782   0.00000   0.01038   0.00998   0.68871
   D51       -1.45127   0.00747   0.00000   0.01445   0.01424  -1.43703
   D52        2.79632   0.00529   0.00000   0.00531   0.00513   2.80145
   D53        0.00330  -0.00010   0.00000  -0.00022  -0.00022   0.00308
   D54        2.40663  -0.01181   0.00000  -0.02549  -0.02562   2.38101
   D55       -2.38548   0.01540   0.00000   0.03074   0.03077  -2.35471
   D56        2.39185  -0.01541   0.00000  -0.03079  -0.03082   2.36104
   D57       -1.48800  -0.02712   0.00000  -0.05606  -0.05622  -1.54422
   D58        0.00307   0.00009   0.00000   0.00017   0.00017   0.00324
   D59       -2.39955   0.01176   0.00000   0.02536   0.02550  -2.37405
   D60        0.00378   0.00005   0.00000   0.00009   0.00009   0.00387
   D61        1.49485   0.02727   0.00000   0.05632   0.05649   1.55134
         Item               Value     Threshold  Converged?
 Maximum Force            0.091218     0.000450     NO 
 RMS     Force            0.022340     0.000300     NO 
 Maximum Displacement     0.087247     0.001800     NO 
 RMS     Displacement     0.027003     0.001200     NO 
 Predicted change in Energy=-6.772401D-02
 GradGradGradGradGradGradGradGradGradGradGradGradGradGradGradGradGradGrad

                          Input orientation:                          
 ---------------------------------------------------------------------
 Center     Atomic      Atomic             Coordinates (Angstroms)
 Number     Number       Type             X           Y           Z
 ---------------------------------------------------------------------
      1          6           0       -0.760206    1.176806   -0.338077
      2          6           0       -1.114945    0.713310    0.919970
      3          6           0       -1.114837   -0.721835    0.913435
      4          6           0       -0.759559   -1.173748   -0.348694
      5          1           0       -0.695902    2.208875   -0.652012
      6          1           0       -1.323498    1.317109    1.791299
      7          1           0       -1.323350   -1.333649    1.779166
      8          1           0       -0.695074   -2.202920   -0.671989
      9          6           0       -0.664299    0.005775   -1.311263
     10          1           0       -1.518733    0.008579   -2.011845
     11          1           0        0.250386    0.009093   -1.902308
     12          6           0        1.077138    0.831696    0.001139
     13          1           0        1.802131    1.219690    1.052088
     14          1           0        2.164678    1.221930   -0.712897
     15          6           0        1.076960   -0.831341   -0.002346
     16          1           0        2.164379   -1.223541   -0.711978
     17          1           0        1.800814   -1.220317    1.052756
 ---------------------------------------------------------------------
                    Distance matrix (angstroms):
                    1          2          3          4          5
     1  C    0.000000
     2  C    1.386849   0.000000
     3  C    2.301496   1.435160   0.000000
     4  C    2.350578   2.301477   1.386873   0.000000
     5  H    1.080674   2.209850   3.348909   3.396791   0.000000
     6  H    2.207086   1.080409   2.229682   3.331962   2.675610
     7  H    3.332001   2.229729   1.080409   2.207083   4.342095
     8  H    3.396805   3.348884   2.209837   1.080682   4.411840
     9  C    1.525649   2.383714   2.383628   1.525414   2.299840
    10  H    2.177525   3.042240   3.042022   2.177225   2.714313
    11  H    2.198106   3.213302   3.213487   2.198368   2.701434
    12  C    1.900000   2.379810   2.837339   2.741832   2.338140
    13  H    2.915471   2.963648   3.506772   3.775314   3.181606
    14  H    2.949148   3.698767   4.144683   3.797773   3.026663
    15  C    2.742362   2.835676   2.377944   1.900000   3.578830
    16  H    3.801929   4.143503   3.694176   2.946840   4.468365
    17  H    3.773518   3.501171   2.961235   2.919202   4.571563
                    6          7          8          9         10
     6  H    0.000000
     7  H    2.650786   0.000000
     8  H    4.342040   2.675542   0.000000
     9  C    3.432206   3.432078   2.299554   0.000000
    10  H    4.026695   4.026352   2.713734   1.104933   0.000000
    11  H    4.222648   4.222897   2.701959   1.089034   1.772507
    12  C    3.033703   3.689504   3.578090   2.331770   3.386468
    13  H    3.213328   4.100831   4.574138   3.625231   4.677885
    14  H    4.295047   4.990762   4.462001   3.136908   4.089865
    15  C    3.687167   3.031103   2.338750   2.333669   3.388387
    16  H    4.988646   4.287444   3.022789   3.141939   4.095496
    17  H    4.092102   3.209504   3.188999   3.628867   4.682024
                   11         12         13         14         15
    11  H    0.000000
    12  C    2.232332   0.000000
    13  H    3.549918   1.334410   0.000000
    14  H    2.559333   1.358261   1.801838   0.000000
    15  C    2.235937   1.663041   2.417527   2.429802   0.000000
    16  H    2.568977   2.432001   3.035216   2.445471   1.356422
    17  H    3.556358   2.416684   2.440008   3.035539   1.337351
                   16         17
    16  H    0.000000
    17  H    1.801799   0.000000
 Stoichiometry    C7H10
 Framework group  C1[X(C7H10)]
 Deg. of freedom    45
 Full point group                 C1      NOp   1
 Largest Abelian subgroup         C1      NOp   1
 Largest concise Abelian subgroup C1      NOp   1
                         Standard orientation:                         
 ---------------------------------------------------------------------
 Center     Atomic      Atomic             Coordinates (Angstroms)
 Number     Number       Type             X           Y           Z
 ---------------------------------------------------------------------
      1          6           0       -0.461995   -1.176886    0.422374
      2          6           0       -1.102804   -0.716372   -0.718083
      3          6           0       -1.103939    0.718781   -0.713952
      4          6           0       -0.463418    1.173682    0.428946
      5          1           0       -0.323859   -2.208245    0.714048
      6          1           0       -1.508738   -1.322178   -1.515265
      7          1           0       -1.510871    1.328596   -1.507562
      8          1           0       -0.326893    2.203576    0.726521
      9          6           0       -0.142770   -0.003824    1.344124
     10          1           0       -0.809043   -0.006567    2.225572
     11          1           0        0.885033   -0.004605    1.704147
     12          6           0        1.243864   -0.829644   -0.338854
     13          1           0        1.702886   -1.218575   -1.529938
     14          1           0        2.469293   -1.216838    0.100778
     15          6           0        1.241294    0.833395   -0.337970
     16          1           0        2.464062    1.228623    0.096212
     17          1           0        1.696734    1.221421   -1.534013
 ---------------------------------------------------------------------
 Rotational constants (GHZ):           3.5883074           3.2570214           2.8510876
 Standard basis: 3-21G (6D, 7F)
 There are    83 symmetry adapted cartesian basis functions of A   symmetry.
 There are    83 symmetry adapted basis functions of A   symmetry.
    83 basis functions,   135 primitive gaussians,    83 cartesian basis functions
    26 alpha electrons       26 beta electrons
       nuclear repulsion energy       297.5156079762 Hartrees.
 NAtoms=   17 NActive=   17 NUniq=   17 SFac= 1.00D+00 NAtFMM=   60 NAOKFM=F Big=F
 Integral buffers will be    131072 words long.
 Raffenetti 2 integral format.
 Two-electron integral symmetry is turned on.
 One-electron integrals computed using PRISM.
 NBasis=    83 RedAO= T EigKep=  4.37D-03  NBF=    83
 NBsUse=    83 1.00D-06 EigRej= -1.00D+00 NBFU=    83
 Initial guess from the checkpoint file:  "C3.chk"
 B after Tr=     0.000000   -0.000000   -0.000000
         Rot=    0.999928   -0.000079   -0.011959   -0.000256 Ang=  -1.37 deg.
 ExpMin= 1.83D-01 ExpMax= 1.72D+02 ExpMxC= 1.72D+02 IAcc=3 IRadAn=         5 AccDes= 0.00D+00
 Harris functional with IExCor=  402 and IRadAn=       5 diagonalized for initial guess.
 HarFok:  IExCor=  402 AccDes= 0.00D+00 IRadAn=         5 IDoV= 1 UseB2=F ITyADJ=14
 ICtDFT=  3500011 ScaDFX=  1.000000  1.000000  1.000000  1.000000
 FoFCou: FMM=F IPFlag=           0 FMFlag=      100000 FMFlg1=           0
         NFxFlg=           0 DoJE=T BraDBF=F KetDBF=T FulRan=T
         wScrn=  0.000000 ICntrl=       500 IOpCl=  0 I1Cent=   200000004 NGrid=           0
         NMat0=    1 NMatS0=      1 NMatT0=    0 NMatD0=    1 NMtDS0=    0 NMtDT0=    0
 Petite list used in FoFCou.
 Keep R1 ints in memory in canonical form, NReq=7891700.
 Requested convergence on RMS density matrix=1.00D-08 within 128 cycles.
 Requested convergence on MAX density matrix=1.00D-06.
 Requested convergence on             energy=1.00D-06.
 No special actions if energy rises.
 Integral accuracy reduced to 1.0D-05 until final iterations.
 Initial convergence to 1.0D-05 achieved.  Increase integral accuracy.
 SCF Done:  E(RB3LYP) =  -270.996458314     A.U. after   13 cycles
            NFock= 13  Conv=0.34D-08     -V/T= 2.0117
 Calling FoFJK, ICntrl=      2127 FMM=F ISym2X=0 I1Cent= 0 IOpClX= 0 NMat=1 NMatS=1 NMatT=0.
 ***** Axes restored to original set *****
 -------------------------------------------------------------------
 Center     Atomic                   Forces (Hartrees/Bohr)
 Number     Number              X              Y              Z
 -------------------------------------------------------------------
      1        6           0.111608686    0.014972761   -0.027335248
      2        6          -0.046557544   -0.074317607    0.048566864
      3        6          -0.046649313    0.073964377    0.049219245
      4        6           0.111486297   -0.014809868   -0.027136322
      5        1          -0.014615806    0.000561850   -0.002726223
      6        1           0.002963283    0.000281846   -0.000854579
      7        1           0.002978195   -0.000277190   -0.000856462
      8        1          -0.014578546   -0.000545414   -0.002708382
      9        6          -0.058951575    0.000164804   -0.037231265
     10        1          -0.003273959   -0.000036731    0.001146342
     11        1          -0.005608824   -0.000056201   -0.002936882
     12        6           0.119895313    0.004513660    0.029709275
     13        1          -0.064990747   -0.017815166   -0.040839345
     14        1          -0.074259308   -0.020453257    0.012536058
     15        6           0.119792700   -0.004634909    0.030512958
     16        1          -0.074161304    0.020871950    0.012185842
     17        1          -0.065077547    0.017615093   -0.041251875
 -------------------------------------------------------------------
 Cartesian Forces:  Max     0.119895313 RMS     0.045914860

 GradGradGradGradGradGradGradGradGradGradGradGradGradGradGradGradGradGrad
 Berny optimization.
 Using GEDIIS/GDIIS optimizer.
 FormGI is forming the generalized inverse of G from B-inverse, IUseBI=4.
 Internal  Forces:  Max     0.072893138 RMS     0.018799041
 Search for a local minimum.
 Step number   2 out of a maximum of  102
 All quantities printed in internal units (Hartrees-Bohrs-Radians)
 Mixed Optimization -- RFO/linear search
 Update second derivatives using D2CorX and points    1    2
 DE= -7.19D-02 DEPred=-6.77D-02 R= 1.06D+00
 TightC=F SS=  1.41D+00  RLast= 3.48D-01 DXNew= 5.0454D-01 1.0434D+00
 Trust test= 1.06D+00 RLast= 3.48D-01 DXMaxT set to 5.05D-01
 ITU=  1  0
 Use linear search instead of GDIIS.
 Linear search step of   0.600 exceeds DXMaxT=   0.505 but not scaled.
 Quartic linear search produced a step of  2.00000.
 Iteration  1 RMS(Cart)=  0.04861230 RMS(Int)=  0.01037760
 Iteration  2 RMS(Cart)=  0.00996328 RMS(Int)=  0.00120287
 Iteration  3 RMS(Cart)=  0.00004347 RMS(Int)=  0.00120186
 Iteration  4 RMS(Cart)=  0.00000002 RMS(Int)=  0.00120186
 Iteration  1 RMS(Cart)=  0.00007435 RMS(Int)=  0.00000525
 Iteration  2 RMS(Cart)=  0.00000071 RMS(Int)=  0.00000528
 Variable       Old X    -DE/DX   Delta X   Delta X   Delta X     New X
                                 (Linear)    (Quad)   (Total)
    R1        2.62077   0.06037   0.12564   0.00000   0.12576   2.74652
    R2        2.04218   0.00046   0.00037   0.00000   0.00037   2.04255
    R3        2.88306   0.00517   0.02517   0.00000   0.02658   2.90964
    R4        3.59048  -0.01755   0.00000   0.00000   0.00000   3.59048
    R5        2.71206  -0.05707  -0.13647   0.00000  -0.13614   2.57592
    R6        2.04168  -0.00110  -0.00325   0.00000  -0.00325   2.03842
    R7        2.62081   0.06035   0.12564   0.00000   0.12575   2.74656
    R8        2.04168  -0.00110  -0.00325   0.00000  -0.00325   2.03843
    R9        2.04219   0.00046   0.00038   0.00000   0.00038   2.04257
   R10        2.88261   0.00519   0.02497   0.00000   0.02639   2.90900
   R11        3.59048  -0.01756  -0.00000   0.00000  -0.00000   3.59048
   R12        2.08802   0.00180   0.00952   0.00000   0.00952   2.09754
   R13        2.05798  -0.00312  -0.01017   0.00000  -0.01017   2.04780
   R14        2.52167  -0.07265  -0.24870   0.00000  -0.24870   2.27297
   R15        2.56674  -0.07192  -0.24794   0.00000  -0.24794   2.31881
   R16        3.14269  -0.02857  -0.09969   0.00000  -0.10190   3.04079
   R17        2.56327  -0.07186  -0.24750   0.00000  -0.24750   2.31577
   R18        2.52723  -0.07289  -0.24999   0.00000  -0.24999   2.27724
    A1        2.21169  -0.00196  -0.00987   0.00000  -0.01088   2.20082
    A2        1.91579   0.00357   0.02010   0.00000   0.01602   1.93181
    A3        1.59549   0.00383   0.02091   0.00000   0.01982   1.61532
    A4        2.14599  -0.00398  -0.02115   0.00000  -0.02282   2.12316
    A5        1.73938   0.00417   0.01641   0.00000   0.01621   1.75560
    A6        1.48437   0.00834   0.05450   0.00000   0.05651   1.54088
    A7        1.90716   0.00042  -0.00224   0.00000  -0.00326   1.90390
    A8        2.20704  -0.00140   0.00322   0.00000   0.00354   2.21058
    A9        2.16826   0.00079  -0.00172   0.00000  -0.00142   2.16683
   A10        1.90711   0.00036  -0.00240   0.00000  -0.00342   1.90369
   A11        2.16834   0.00083  -0.00161   0.00000  -0.00131   2.16702
   A12        2.20700  -0.00138   0.00327   0.00000   0.00359   2.21058
   A13        2.21162  -0.00190  -0.00963   0.00000  -0.01064   2.20098
   A14        1.91590   0.00361   0.02025   0.00000   0.01617   1.93208
   A15        1.59380   0.00387   0.02106   0.00000   0.01997   1.61377
   A16        2.14586  -0.00408  -0.02159   0.00000  -0.02324   2.12262
   A17        1.74008   0.00420   0.01652   0.00000   0.01634   1.75642
   A18        1.48601   0.00825   0.05405   0.00000   0.05608   1.54209
   A19        1.75898  -0.01266  -0.05697   0.00000  -0.05894   1.70004
   A20        1.93252   0.00979   0.04527   0.00000   0.04567   1.97819
   A21        1.97867  -0.00156  -0.00791   0.00000  -0.00825   1.97041
   A22        1.93240   0.00976   0.04509   0.00000   0.04547   1.97787
   A23        1.97934  -0.00164  -0.00833   0.00000  -0.00862   1.97072
   A24        1.88112  -0.00310  -0.01376   0.00000  -0.01393   1.86719
   A25        2.23088  -0.01568  -0.06361   0.00000  -0.06344   2.16745
   A26        2.25009  -0.01436  -0.05397   0.00000  -0.05377   2.19631
   A27        1.75296   0.00273   0.00471   0.00000   0.00421   1.75717
   A28        1.46608   0.02193   0.09439   0.00000   0.09294   1.55901
   A29        1.86760   0.00433   0.02033   0.00000   0.02043   1.88803
   A30        1.86115   0.00555   0.01728   0.00000   0.01603   1.87718
   A31        1.75249   0.00283   0.00519   0.00000   0.00470   1.75720
   A32        2.24904  -0.01423  -0.05334   0.00000  -0.05316   2.19588
   A33        2.23264  -0.01591  -0.06473   0.00000  -0.06456   2.16809
   A34        1.86518   0.00541   0.01665   0.00000   0.01543   1.88061
   A35        1.86413   0.00439   0.02064   0.00000   0.02076   1.88489
   A36        1.46533   0.02198   0.09459   0.00000   0.09313   1.55846
    D1        3.11345  -0.00348  -0.02256   0.00000  -0.02186   3.09159
    D2       -0.06806  -0.00849  -0.04616   0.00000  -0.04588  -0.11394
    D3        0.11872   0.01457   0.07737   0.00000   0.07923   0.19795
    D4       -3.06279   0.00956   0.05377   0.00000   0.05521  -3.00758
    D5       -1.36910   0.00436   0.01248   0.00000   0.01144  -1.35766
    D6        1.73258  -0.00066  -0.01112   0.00000  -0.01257   1.72000
    D7       -0.17661  -0.02036  -0.11107   0.00000  -0.10912  -0.28573
    D8        1.86892  -0.01182  -0.07005   0.00000  -0.07070   1.79821
    D9       -2.29759  -0.00975  -0.06028   0.00000  -0.06084  -2.35844
   D10        3.10523  -0.00329  -0.01627   0.00000  -0.01426   3.09097
   D11       -1.13242   0.00526   0.02475   0.00000   0.02415  -1.10827
   D12        0.98425   0.00733   0.03452   0.00000   0.03402   1.01827
   D13        1.38938  -0.01359  -0.07154   0.00000  -0.06802   1.32136
   D14       -2.84827  -0.00504  -0.03052   0.00000  -0.02960  -2.87788
   D15       -0.73160  -0.00297  -0.02074   0.00000  -0.01974  -0.75134
   D16       -0.89588   0.00036   0.00815   0.00000   0.00797  -0.88791
   D17       -2.94100  -0.00057  -0.01037   0.00000  -0.01043  -2.95142
   D18        1.22114  -0.00140  -0.00200   0.00000  -0.00095   1.22019
   D19        1.33212  -0.00008   0.00524   0.00000   0.00467   1.33679
   D20       -0.71300  -0.00101  -0.01328   0.00000  -0.01373  -0.72672
   D21       -2.83405  -0.00184  -0.00491   0.00000  -0.00425  -2.83830
   D22       -2.81086  -0.00287  -0.00917   0.00000  -0.00799  -2.81884
   D23        1.42721  -0.00380  -0.02769   0.00000  -0.02638   1.40083
   D24       -0.69384  -0.00462  -0.01932   0.00000  -0.01690  -0.71074
   D25        0.00036  -0.00002  -0.00011   0.00000  -0.00011   0.00025
   D26        3.10283  -0.00495  -0.02296   0.00000  -0.02324   3.07960
   D27       -3.10240   0.00492   0.02274   0.00000   0.02303  -3.07937
   D28        0.00007  -0.00002  -0.00010   0.00000  -0.00010  -0.00002
   D29       -3.11335   0.00349   0.02256   0.00000   0.02190  -3.09145
   D30       -0.11932  -0.01456  -0.07724   0.00000  -0.07911  -0.19843
   D31        1.36964  -0.00442  -0.01279   0.00000  -0.01174   1.35790
   D32        0.06845   0.00850   0.04614   0.00000   0.04589   0.11435
   D33        3.06248  -0.00955  -0.05366   0.00000  -0.05511   3.00737
   D34       -1.73174   0.00059   0.01080   0.00000   0.01226  -1.71949
   D35        0.17684   0.02035   0.11101   0.00000   0.10908   0.28592
   D36       -1.86878   0.01179   0.06985   0.00000   0.07051  -1.79827
   D37        2.29734   0.00978   0.06046   0.00000   0.06104   2.35839
   D38       -3.10566   0.00331   0.01639   0.00000   0.01441  -3.09125
   D39        1.13190  -0.00526  -0.02477   0.00000  -0.02416   1.10774
   D40       -0.98516  -0.00726  -0.03416   0.00000  -0.03362  -1.01879
   D41       -1.38793   0.01357   0.07145   0.00000   0.06796  -1.31997
   D42        2.84964   0.00500   0.03030   0.00000   0.02938   2.87902
   D43        0.73257   0.00300   0.02090   0.00000   0.01992   0.75249
   D44       -1.22651   0.00149   0.00255   0.00000   0.00152  -1.22499
   D45        2.93094   0.00071   0.01107   0.00000   0.01114   2.94208
   D46        0.88623  -0.00018  -0.00716   0.00000  -0.00698   0.87925
   D47        2.82904   0.00186   0.00520   0.00000   0.00454   2.83358
   D48        0.70331   0.00108   0.01371   0.00000   0.01417   0.71747
   D49       -1.34140   0.00019  -0.00451   0.00000  -0.00396  -1.34536
   D50        0.68871   0.00474   0.01997   0.00000   0.01756   0.70627
   D51       -1.43703   0.00397   0.02848   0.00000   0.02719  -1.40984
   D52        2.80145   0.00308   0.01026   0.00000   0.00906   2.81051
   D53        0.00308  -0.00008  -0.00043   0.00000  -0.00043   0.00265
   D54        2.38101  -0.01217  -0.05125   0.00000  -0.05211   2.32890
   D55       -2.35471   0.01460   0.06154   0.00000   0.06172  -2.29299
   D56        2.36104  -0.01459  -0.06163   0.00000  -0.06181   2.29923
   D57       -1.54422  -0.02668  -0.11245   0.00000  -0.11349  -1.65771
   D58        0.00324   0.00008   0.00034   0.00000   0.00034   0.00358
   D59       -2.37405   0.01215   0.05100   0.00000   0.05187  -2.32218
   D60        0.00387   0.00005   0.00019   0.00000   0.00019   0.00407
   D61        1.55134   0.02682   0.11298   0.00000   0.11402   1.66536
         Item               Value     Threshold  Converged?
 Maximum Force            0.072893     0.000450     NO 
 RMS     Force            0.018819     0.000300     NO 
 Maximum Displacement     0.160009     0.001800     NO 
 RMS     Displacement     0.053942     0.001200     NO 
 Predicted change in Energy=-1.151250D-01
 GradGradGradGradGradGradGradGradGradGradGradGradGradGradGradGradGradGrad

                          Input orientation:                          
 ---------------------------------------------------------------------
 Center     Atomic      Atomic             Coordinates (Angstroms)
 Number     Number       Type             X           Y           Z
 ---------------------------------------------------------------------
      1          6           0       -0.693728    1.158161   -0.343241
      2          6           0       -1.109060    0.677162    0.963856
      3          6           0       -1.109025   -0.685943    0.957856
      4          6           0       -0.693303   -1.155113   -0.353432
      5          1           0       -0.639631    2.192082   -0.653661
      6          1           0       -1.325804    1.278879    1.832488
      7          1           0       -1.325692   -1.295464    1.821055
      8          1           0       -0.639062   -2.186145   -0.673330
      9          6           0       -0.668645    0.005778   -1.364076
     10          1           0       -1.539940    0.008361   -2.051735
     11          1           0        0.221886    0.008806   -1.981527
     12          6           0        1.138458    0.804841    0.014896
     13          1           0        1.718551    1.177641    1.000417
     14          1           0        2.088462    1.176286   -0.667155
     15          6           0        1.138080   -0.804271    0.011186
     16          1           0        2.088393   -1.176553   -0.667081
     17          1           0        1.716141   -1.178993    0.999928
 ---------------------------------------------------------------------
                    Distance matrix (angstroms):
                    1          2          3          4          5
     1  C    0.000000
     2  C    1.453397   0.000000
     3  C    2.294787   1.363118   0.000000
     4  C    2.313296   2.294630   1.453417   0.000000
     5  H    1.080870   2.265327   3.331719   3.361061   0.000000
     6  H    2.268896   1.078686   2.161597   3.332059   2.736003
     7  H    3.332241   2.161706   1.078690   2.268922   4.331036
     8  H    3.361001   3.331636   2.265445   1.080881   4.378271
     9  C    1.539714   2.462516   2.462475   1.539376   2.299012
    10  H    2.226447   3.118772   3.118555   2.225915   2.744778
    11  H    2.200760   3.300514   3.300602   2.200676   2.696690
    12  C    1.900000   2.442982   2.857060   2.707846   2.352234
    13  H    2.761320   2.871794   3.386731   3.618244   3.053864
    14  H    2.801041   3.624013   4.041347   3.643084   2.911103
    15  C    2.707818   2.855146   2.441243   1.900000   3.546887
    16  H    3.646362   4.039791   3.620028   2.799405   4.334743
    17  H    3.615779   3.380587   2.868175   2.763616   4.432625
                    6          7          8          9         10
     6  H    0.000000
     7  H    2.574368   0.000000
     8  H    4.330950   2.736189   0.000000
     9  C    3.502951   3.502856   2.298376   0.000000
    10  H    4.092342   4.091988   2.743617   1.109971   0.000000
    11  H    4.307568   4.307638   2.696371   1.083651   1.763224
    12  C    3.098538   3.707496   3.546720   2.409499   3.475508
    13  H    3.157639   4.007133   4.435631   3.558483   4.615258
    14  H    4.232724   4.894608   4.329591   3.075293   4.055417
    15  C    3.705047   3.096299   2.352949   2.410764   3.476752
    16  H    4.892211   4.226220   2.908320   3.079768   4.060306
    17  H    3.998464   3.152866   3.059595   3.560815   4.617847
                   11         12         13         14         15
    11  H    0.000000
    12  C    2.336553   0.000000
    13  H    3.535276   1.202805   0.000000
    14  H    2.564116   1.227059   1.708108   0.000000
    15  C    2.339105   1.609117   2.289869   2.299126   0.000000
    16  H    2.572294   2.300737   2.908532   2.352838   1.225453
    17  H    3.540161   2.289018   2.356635   2.909489   1.205064
                   16         17
    16  H    0.000000
    17  H    1.708067   0.000000
 Stoichiometry    C7H10
 Framework group  C1[X(C7H10)]
 Deg. of freedom    45
 Full point group                 C1      NOp   1
 Largest Abelian subgroup         C1      NOp   1
 Largest concise Abelian subgroup C1      NOp   1
                         Standard orientation:                         
 ---------------------------------------------------------------------
 Center     Atomic      Atomic             Coordinates (Angstroms)
 Number     Number       Type             X           Y           Z
 ---------------------------------------------------------------------
      1          6           0       -0.397652   -1.158641    0.442043
      2          6           0       -1.165657   -0.680767   -0.695571
      3          6           0       -1.167569    0.682342   -0.691117
      4          6           0       -0.400542    1.154641    0.449508
      5          1           0       -0.255542   -2.191919    0.725632
      6          1           0       -1.616714   -1.284422   -1.467396
      7          1           0       -1.620251    1.289930   -1.458898
      8          1           0       -0.261131    2.186324    0.740193
      9          6           0       -0.089086   -0.004511    1.413376
     10          1           0       -0.731369   -0.007948    2.318636
     11          1           0        0.939323   -0.004472    1.754955
     12          6           0        1.258497   -0.801720   -0.418062
     13          1           0        1.538465   -1.174826   -1.526733
     14          1           0        2.363150   -1.169853   -0.030904
     15          6           0        1.254888    0.807392   -0.415923
     16          1           0        2.356788    1.182976   -0.033187
     17          1           0        1.530006    1.181794   -1.527819
 ---------------------------------------------------------------------
 Rotational constants (GHZ):           3.5984459           3.1550203           2.8961924
 Standard basis: 3-21G (6D, 7F)
 There are    83 symmetry adapted cartesian basis functions of A   symmetry.
 There are    83 symmetry adapted basis functions of A   symmetry.
    83 basis functions,   135 primitive gaussians,    83 cartesian basis functions
    26 alpha electrons       26 beta electrons
       nuclear repulsion energy       297.5721248544 Hartrees.
 NAtoms=   17 NActive=   17 NUniq=   17 SFac= 1.00D+00 NAtFMM=   60 NAOKFM=F Big=F
 Integral buffers will be    131072 words long.
 Raffenetti 2 integral format.
 Two-electron integral symmetry is turned on.
 One-electron integrals computed using PRISM.
 NBasis=    83 RedAO= T EigKep=  4.53D-03  NBF=    83
 NBsUse=    83 1.00D-06 EigRej= -1.00D+00 NBFU=    83
 Initial guess from the checkpoint file:  "C3.chk"
 B after Tr=    -0.000000    0.000000    0.000000
         Rot=    0.999700   -0.000218   -0.024494   -0.000342 Ang=  -2.81 deg.
 ExpMin= 1.83D-01 ExpMax= 1.72D+02 ExpMxC= 1.72D+02 IAcc=3 IRadAn=         5 AccDes= 0.00D+00
 Harris functional with IExCor=  402 and IRadAn=       5 diagonalized for initial guess.
 HarFok:  IExCor=  402 AccDes= 0.00D+00 IRadAn=         5 IDoV= 1 UseB2=F ITyADJ=14
 ICtDFT=  3500011 ScaDFX=  1.000000  1.000000  1.000000  1.000000
 FoFCou: FMM=F IPFlag=           0 FMFlag=      100000 FMFlg1=           0
         NFxFlg=           0 DoJE=T BraDBF=F KetDBF=T FulRan=T
         wScrn=  0.000000 ICntrl=       500 IOpCl=  0 I1Cent=   200000004 NGrid=           0
         NMat0=    1 NMatS0=      1 NMatT0=    0 NMatD0=    1 NMtDS0=    0 NMtDT0=    0
 Petite list used in FoFCou.
 Keep R1 ints in memory in canonical form, NReq=7891700.
 Requested convergence on RMS density matrix=1.00D-08 within 128 cycles.
 Requested convergence on MAX density matrix=1.00D-06.
 Requested convergence on             energy=1.00D-06.
 No special actions if energy rises.
 Integral accuracy reduced to 1.0D-05 until final iterations.
 Initial convergence to 1.0D-05 achieved.  Increase integral accuracy.
 SCF Done:  E(RB3LYP) =  -271.106495545     A.U. after   13 cycles
            NFock= 13  Conv=0.51D-08     -V/T= 2.0114
 Calling FoFJK, ICntrl=      2127 FMM=F ISym2X=0 I1Cent= 0 IOpClX= 0 NMat=1 NMatS=1 NMatT=0.
 ***** Axes restored to original set *****
 -------------------------------------------------------------------
 Center     Atomic                   Forces (Hartrees/Bohr)
 Number     Number              X              Y              Z
 -------------------------------------------------------------------
      1        6           0.100802605    0.009307275    0.000517438
      2        6          -0.029327382   -0.018860572    0.004461767
      3        6          -0.029384014    0.018906429    0.004562531
      4        6           0.100731935   -0.009407987    0.000758046
      5        1          -0.014210211    0.001933890   -0.000372644
      6        1           0.002728814    0.004398446   -0.001624626
      7        1           0.002736613   -0.004375268   -0.001665406
      8        1          -0.014162053   -0.001944520   -0.000336359
      9        6          -0.050062714    0.000078877   -0.004378275
     10        1          -0.001483133   -0.000038954    0.008405411
     11        1           0.000671019   -0.000014050   -0.001934955
     12        6           0.072836557    0.003070128    0.015805226
     13        1          -0.049484430   -0.010389901   -0.022847068
     14        1          -0.057878184   -0.012742380    0.002758571
     15        6           0.072790071   -0.003309815    0.017142391
     16        1          -0.057550840    0.013030336    0.002304647
     17        1          -0.049754654    0.010358065   -0.023556694
 -------------------------------------------------------------------
 Cartesian Forces:  Max     0.100802605 RMS     0.031443735

 GradGradGradGradGradGradGradGradGradGradGradGradGradGradGradGradGradGrad
 Berny optimization.
 Using GEDIIS/GDIIS optimizer.
 FormGI is forming the generalized inverse of G from B-inverse, IUseBI=4.
 Internal  Forces:  Max     0.050200388 RMS     0.012529242
 Search for a local minimum.
 Step number   3 out of a maximum of  102
 All quantities printed in internal units (Hartrees-Bohrs-Radians)
 Mixed Optimization -- RFO/linear search
 Update second derivatives using D2CorX and points    2    3
 ITU=  0  1  0
 Use linear search instead of GDIIS.
 Linear search step of   0.611 exceeds DXMaxT=   0.505 but not scaled.
 Quartic linear search produced a step of  1.01734.
 Iteration  1 RMS(Cart)=  0.04875281 RMS(Int)=  0.01131289
 Iteration  2 RMS(Cart)=  0.01082874 RMS(Int)=  0.00160912
 Iteration  3 RMS(Cart)=  0.00005223 RMS(Int)=  0.00160777
 Iteration  4 RMS(Cart)=  0.00000005 RMS(Int)=  0.00160777
 Iteration  1 RMS(Cart)=  0.00010105 RMS(Int)=  0.00000714
 Iteration  2 RMS(Cart)=  0.00000097 RMS(Int)=  0.00000717
 Variable       Old X    -DE/DX   Delta X   Delta X   Delta X     New X
                                 (Linear)    (Quad)   (Total)
    R1        2.74652   0.01225   0.12794   0.00000   0.12812   2.87464
    R2        2.04255   0.00125   0.00038   0.00000   0.00038   2.04293
    R3        2.90964  -0.00128   0.02704   0.00000   0.02878   2.93842
    R4        3.59048  -0.03312   0.00000   0.00000  -0.00000   3.59048
    R5        2.57592  -0.00825  -0.13850   0.00000  -0.13794   2.43798
    R6        2.03842   0.00060  -0.00331   0.00000  -0.00331   2.03511
    R7        2.74656   0.01221   0.12793   0.00000   0.12811   2.87467
    R8        2.03843   0.00059  -0.00331   0.00000  -0.00331   2.03512
    R9        2.04257   0.00124   0.00038   0.00000   0.00038   2.04295
   R10        2.90900  -0.00113   0.02684   0.00000   0.02859   2.93759
   R11        3.59048  -0.03312  -0.00000   0.00000   0.00000   3.59048
   R12        2.09754  -0.00404   0.00968   0.00000   0.00968   2.10722
   R13        2.04780   0.00165  -0.01035   0.00000  -0.01035   2.03746
   R14        2.27297  -0.04581  -0.25301   0.00000  -0.25301   2.01996
   R15        2.31881  -0.05020  -0.25224   0.00000  -0.25224   2.06657
   R16        3.04079  -0.01488  -0.10367   0.00000  -0.10662   2.93417
   R17        2.31577  -0.04986  -0.25179   0.00000  -0.25179   2.06398
   R18        2.27724  -0.04642  -0.25432   0.00000  -0.25432   2.02292
    A1        2.20082  -0.00116  -0.01107   0.00000  -0.01240   2.18842
    A2        1.93181  -0.00425   0.01630   0.00000   0.01044   1.94225
    A3        1.61532   0.00507   0.02017   0.00000   0.01907   1.63438
    A4        2.12316   0.00210  -0.02322   0.00000  -0.02548   2.09769
    A5        1.75560   0.00519   0.01649   0.00000   0.01626   1.77186
    A6        1.54088   0.00238   0.05749   0.00000   0.06000   1.60088
    A7        1.90390   0.00040  -0.00331   0.00000  -0.00465   1.89926
    A8        2.21058  -0.00529   0.00360   0.00000   0.00399   2.21457
    A9        2.16683   0.00464  -0.00145   0.00000  -0.00107   2.16576
   A10        1.90369   0.00037  -0.00348   0.00000  -0.00482   1.89887
   A11        2.16702   0.00465  -0.00134   0.00000  -0.00096   2.16607
   A12        2.21058  -0.00527   0.00365   0.00000   0.00404   2.21463
   A13        2.20098  -0.00111  -0.01083   0.00000  -0.01217   2.18881
   A14        1.93208  -0.00426   0.01645   0.00000   0.01060   1.94268
   A15        1.61377   0.00511   0.02032   0.00000   0.01921   1.63298
   A16        2.12262   0.00205  -0.02365   0.00000  -0.02587   2.09675
   A17        1.75642   0.00516   0.01662   0.00000   0.01640   1.77283
   A18        1.54209   0.00235   0.05705   0.00000   0.05958   1.60167
   A19        1.70004   0.00186  -0.05996   0.00000  -0.06235   1.63769
   A20        1.97819   0.00297   0.04646   0.00000   0.04692   2.02511
   A21        1.97041  -0.00514  -0.00839   0.00000  -0.00884   1.96158
   A22        1.97787   0.00297   0.04626   0.00000   0.04670   2.02456
   A23        1.97072  -0.00516  -0.00877   0.00000  -0.00915   1.96158
   A24        1.86719   0.00216  -0.01417   0.00000  -0.01439   1.85280
   A25        2.16745  -0.01492  -0.06454   0.00000  -0.06428   2.10317
   A26        2.19631  -0.01532  -0.05471   0.00000  -0.05444   2.14187
   A27        1.75717   0.00410   0.00428   0.00000   0.00353   1.76070
   A28        1.55901   0.02014   0.09455   0.00000   0.09225   1.65126
   A29        1.88803   0.00489   0.02078   0.00000   0.02094   1.90898
   A30        1.87718   0.00459   0.01631   0.00000   0.01448   1.89166
   A31        1.75720   0.00410   0.00478   0.00000   0.00404   1.76124
   A32        2.19588  -0.01522  -0.05408   0.00000  -0.05384   2.14204
   A33        2.16809  -0.01505  -0.06568   0.00000  -0.06542   2.10267
   A34        1.88061   0.00449   0.01570   0.00000   0.01391   1.89452
   A35        1.88489   0.00500   0.02112   0.00000   0.02130   1.90619
   A36        1.55846   0.02016   0.09474   0.00000   0.09243   1.65090
[...]
 ! D12   D(5,1,9,11)            61.2716         -DE/DX =    0.0001              !
 ! D13   D(12,1,9,4)            63.4203         -DE/DX =   -0.0009              !
 ! D14   D(12,1,9,10)          178.0855         -DE/DX =   -0.0005              !
 ! D15   D(12,1,9,11)          -56.993          -DE/DX =   -0.0003              !
 ! D16   D(2,1,12,13)          -54.1149         -DE/DX =    0.0001              !
 ! D17   D(2,1,12,14)         -172.4771         -DE/DX =    0.0003              !
 ! D18   D(2,1,12,15)           67.4892         -DE/DX =    0.0001              !
 ! D19   D(5,1,12,13)           75.3709         -DE/DX =    0.0                 !
 ! D20   D(5,1,12,14)          -42.9913         -DE/DX =    0.0002              !
 ! D21   D(5,1,12,15)         -163.025          -DE/DX =    0.0001              !
 ! D22   D(9,1,12,13)         -158.9369         -DE/DX =   -0.0005              !
 ! D23   D(9,1,12,14)           82.7009         -DE/DX =   -0.0003              !
 ! D24   D(9,1,12,15)          -37.3327         -DE/DX =   -0.0004              !
 ! D25   D(1,2,3,4)              0.0            -DE/DX =    0.0                 !
 ! D26   D(1,2,3,7)            172.2307         -DE/DX =   -0.0007              !
 ! D27   D(6,2,3,4)           -172.2318         -DE/DX =    0.0007              !
 ! D28   D(6,2,3,7)             -0.0011         -DE/DX =    0.0                 !
 ! D29   D(2,3,4,8)           -164.6226         -DE/DX =   -0.0007              !
 ! D30   D(2,3,4,9)            -27.185          -DE/DX =   -0.0004              !
 ! D31   D(2,3,4,15)            72.3437         -DE/DX =   -0.0016              !
 ! D32   D(7,3,4,8)             22.9425         -DE/DX =    0.0                 !
 ! D33   D(7,3,4,9)            160.3801         -DE/DX =    0.0003              !
 ! D34   D(7,3,4,15)          -100.0912         -DE/DX =   -0.0009              !
 ! D35   D(3,4,9,1)             40.7894         -DE/DX =    0.0003              !
 ! D36   D(3,4,9,10)           -73.876          -DE/DX =   -0.0001              !
 ! D37   D(3,4,9,11)           161.2025         -DE/DX =   -0.0003              !
 ! D38   D(8,4,9,1)            178.313          -DE/DX =    0.0005              !
 ! D39   D(8,4,9,10)            63.6476         -DE/DX =    0.0001              !
 ! D40   D(8,4,9,11)           -61.2739         -DE/DX =   -0.0001              !
 ! D41   D(15,4,9,1)           -63.4176         -DE/DX =    0.0009              !
 ! D42   D(15,4,9,10)         -178.083          -DE/DX =    0.0005              !
 ! D43   D(15,4,9,11)           56.9955         -DE/DX =    0.0003              !
 ! D44   D(3,4,15,12)          -67.5011         -DE/DX =   -0.0001              !
 ! D45   D(3,4,15,16)          172.4627         -DE/DX =   -0.0003              !
 ! D46   D(3,4,15,17)           54.098          -DE/DX =   -0.0001              !
 ! D47   D(8,4,15,12)          163.0148         -DE/DX =   -0.0001              !
 ! D48   D(8,4,15,16)           42.9787         -DE/DX =   -0.0002              !
 ! D49   D(8,4,15,17)          -75.386          -DE/DX =    0.0                 !
 ! D50   D(9,4,15,12)           37.3208         -DE/DX =    0.0004              !
 ! D51   D(9,4,15,16)          -82.7153         -DE/DX =    0.0003              !
 ! D52   D(9,4,15,17)          158.92           -DE/DX =    0.0005              !
 ! D53   D(1,12,15,4)            0.0066         -DE/DX =    0.0                 !
 ! D54   D(1,12,15,16)         112.5343         -DE/DX =    0.0002              !
 ! D55   D(1,12,15,17)        -114.21           -DE/DX =   -0.0002              !
 ! D56   D(13,12,15,4)         114.2316         -DE/DX =    0.0002              !
 ! D57   D(13,12,15,16)       -133.2407         -DE/DX =    0.0004              !
 ! D58   D(13,12,15,17)          0.015          -DE/DX =    0.0                 !
 ! D59   D(14,12,15,4)        -112.5148         -DE/DX =   -0.0002              !
 ! D60   D(14,12,15,16)          0.0129         -DE/DX =    0.0                 !
 ! D61   D(14,12,15,17)        133.2686         -DE/DX =   -0.0004              !
 --------------------------------------------------------------------------------
 GradGradGradGradGradGradGradGradGradGradGradGradGradGradGradGradGradGrad

                          Input orientation:                          
 ---------------------------------------------------------------------
 Center     Atomic      Atomic             Coordinates (Angstroms)
 Number     Number       Type             X           Y           Z
 ---------------------------------------------------------------------
      1          6           0       -0.435205    1.155090   -0.316760
      2          6           0       -1.137796    0.674491    0.902966
      3          6           0       -1.137699   -0.680907    0.898120
      4          6           0       -0.435033   -1.152669   -0.325023
      5          1           0       -0.534443    2.187425   -0.638376
      6          1           0       -1.465628    1.314826    1.710835
      7          1           0       -1.465422   -1.327054    1.701394
      8          1           0       -0.534151   -2.182684   -0.654028
      9          6           0       -0.652593    0.004762   -1.318074
     10          1           0       -1.689814    0.005974   -1.679445
     11          1           0        0.043777    0.007829   -2.159480
     12          6           0        1.379261    0.749934    0.075107
     13          1           0        1.582595    1.221150    1.033875
     14          1           0        1.942960    1.210901   -0.735868
     15          6           0        1.379351   -0.750092    0.069873
     16          1           0        1.943380   -1.205411   -0.744305
     17          1           0        1.582543   -1.228052    1.025633
 ---------------------------------------------------------------------
                    Distance matrix (angstroms):
                    1          2          3          4          5
     1  C    0.000000
     2  C    1.487394   0.000000
     3  C    2.310913   1.355407   0.000000
     4  C    2.307774   2.310919   1.487407   0.000000
     5  H    1.085817   2.242485   3.309391   3.356233   0.000000
     6  H    2.280007   1.081738   2.179678   3.360860   2.673449
     7  H    3.360853   2.179681   1.081738   2.280017   4.323518
     8  H    3.356230   3.309391   2.242492   1.085818   4.370137
     9  C    1.540501   2.370017   2.370018   1.540496   2.289097
    10  H    2.179775   2.724056   2.724056   2.179768   2.679073
    11  H    2.222892   3.349496   3.349501   2.222891   2.720061
    12  C    1.900000   2.650777   3.009942   2.659261   2.497539
    13  H    2.429011   2.777859   3.322085   3.398888   2.865651
    14  H    2.415457   3.530519   3.967280   3.377885   2.664700
    15  C    2.659289   3.009902   2.650721   1.900000   3.576762
    16  H    3.378228   3.967515   3.530681   2.415663   4.202637
    17  H    3.398926   3.321892   2.777651   2.429109   4.349257
                    6          7          8          9         10
     6  H    0.000000
     7  H    2.641897   0.000000
     8  H    4.323518   2.673459   0.000000
     9  C    3.398763   3.398766   2.289084   0.000000
    10  H    3.641065   3.641069   2.679041   1.098370   0.000000
    11  H    4.354984   4.354990   2.720061   1.092201   1.798826
    12  C    3.329881   3.879551   3.576736   2.573843   3.612638
    13  H    3.123894   4.028564   4.349220   3.465160   4.421246
    14  H    4.197098   4.898829   4.202285   2.920725   3.941983
    15  C    3.879504   3.329787   2.497568   2.573907   3.612689
    16  H    4.899045   4.197162   2.664840   2.921097   3.942339
    17  H    4.028285   3.123547   2.865830   3.465347   4.421379
                   11         12         13         14         15
    11  H    0.000000
    12  C    2.706957   0.000000
    13  H    3.746682   1.087486   0.000000
    14  H    2.661005   1.089920   1.806089   0.000000
    15  C    2.707068   1.500035   2.203725   2.193711   0.000000
    16  H    2.661421   2.193864   3.029899   2.416327   1.090105
    17  H    3.747018   2.203918   2.449216   3.030062   1.087755
                   16         17
    16  H    0.000000
    17  H    1.806487   0.000000
 Stoichiometry    C7H10
 Framework group  C1[X(C7H10)]
 Deg. of freedom    45
 Full point group                 C1      NOp   1
 Largest Abelian subgroup         C1      NOp   1
 Largest concise Abelian subgroup C1      NOp   1
                         Standard orientation:                         
 ---------------------------------------------------------------------
 Center     Atomic      Atomic             Coordinates (Angstroms)
 Number     Number       Type             X           Y           Z
 ---------------------------------------------------------------------
      1          6           0       -0.270931   -1.153936    0.363356
      2          6           0       -1.217847   -0.677593   -0.680094
      3          6           0       -1.217817    0.677814   -0.679917
      4          6           0       -0.270871    1.153838    0.363669
      5          1           0       -0.298468   -2.185165    0.702190
      6          1           0       -1.709891   -1.320731   -1.397327
      7          1           0       -1.709817    1.321166   -1.396989
      8          1           0       -0.298386    2.184972    0.702793
      9          6           0       -0.270730   -0.000184    1.384140
     10          1           0       -1.207034   -0.000233    1.958380
     11          1           0        0.589048   -0.000300    2.057702
     12          6           0        1.417910   -0.749990   -0.407773
     13          1           0        1.412500   -1.224488   -1.386266
     14          1           0        2.141950   -1.208118    0.265882
     15          6           0        1.417899    0.750045   -0.407699
     16          1           0        2.142202    1.208208    0.265948
     17          1           0        1.412223    1.224728   -1.386400
 ---------------------------------------------------------------------
 Rotational constants (GHZ):           3.7741224           3.0461303           2.7590628

 **********************************************************************

            Population analysis using the SCF Density.

 **********************************************************************

 Orbital symmetries:
       Occupied  (A) (A) (A) (A) (A) (A) (A) (A) (A) (A) (A) (A)
                 (A) (A) (A) (A) (A) (A) (A) (A) (A) (A) (A) (A)
                 (A) (A)
       Virtual   (A) (A) (A) (A) (A) (A) (A) (A) (A) (A) (A) (A)
                 (A) (A) (A) (A) (A) (A) (A) (A) (A) (A) (A) (A)
                 (A) (A) (A) (A) (A) (A) (A) (A) (A) (A) (A) (A)
                 (A) (A) (A) (A) (A) (A) (A) (A) (A) (A) (A) (A)
                 (A) (A) (A) (A) (A) (A) (A) (A) (A)
 The electronic state is 1-A.
 Alpha  occ. eigenvalues --  -10.13377 -10.13286 -10.12053 -10.11961 -10.11562
 Alpha  occ. eigenvalues --  -10.11144 -10.11026  -0.85659  -0.73217  -0.69676
 Alpha  occ. eigenvalues --   -0.68830  -0.57393  -0.55156  -0.51292  -0.50629
 Alpha  occ. eigenvalues --   -0.45497  -0.43427  -0.39054  -0.36836  -0.36303
 Alpha  occ. eigenvalues --   -0.35579  -0.35019  -0.32299  -0.31540  -0.26013
 Alpha  occ. eigenvalues --   -0.22042
 Alpha virt. eigenvalues --    0.02614   0.06337   0.12795   0.15205   0.15948
 Alpha virt. eigenvalues --    0.17017   0.18591   0.18919   0.19596   0.20026
 Alpha virt. eigenvalues --    0.21144   0.21562   0.24088   0.24563   0.26690
 Alpha virt. eigenvalues --    0.29851   0.29964   0.38795   0.43084   0.66815
 Alpha virt. eigenvalues --    0.68197   0.70869   0.71042   0.72483   0.75461
 Alpha virt. eigenvalues --    0.75504   0.76950   0.76980   0.79089   0.82384
 Alpha virt. eigenvalues --    0.86036   0.90785   0.91518   0.93177   0.98794
 Alpha virt. eigenvalues --    1.01943   1.02192   1.02430   1.04425   1.04704
 Alpha virt. eigenvalues --    1.06872   1.07762   1.11255   1.11763   1.13963
 Alpha virt. eigenvalues --    1.18407   1.29350   1.36594   1.38863   1.41854
 Alpha virt. eigenvalues --    1.44975   1.80622   1.83149   2.02809   2.15943
 Alpha virt. eigenvalues --    2.17953   2.73916
          Condensed to atoms (all electrons):
               1          2          3          4          5          6
     1  C    5.451031   0.335894  -0.105597  -0.158801   0.390908  -0.034704
     2  C    0.335894   5.237211   0.516645  -0.105597  -0.035031   0.391923
     3  C   -0.105597   0.516645   5.237218   0.335899   0.004335  -0.037397
     4  C   -0.158801  -0.105597   0.335899   5.451031   0.004242   0.004365
     5  H    0.390908  -0.035031   0.004335   0.004242   0.517389  -0.001649
     6  H   -0.034704   0.391923  -0.037397   0.004365  -0.001649   0.502909
     7  H    0.004365  -0.037397   0.391923  -0.034703  -0.000049  -0.002243
     8  H    0.004242   0.004335  -0.035030   0.390909  -0.000063  -0.000049
     9  C    0.293863  -0.112598  -0.112597   0.293854  -0.028555   0.003275
    10  H   -0.040153   0.002513   0.002513  -0.040154  -0.000874  -0.000085
    11  H   -0.035660   0.004623   0.004623  -0.035660  -0.001106  -0.000041
    12  C    0.222672  -0.051962  -0.015207  -0.040040  -0.018792   0.000486
    13  H   -0.020625  -0.002491   0.001025   0.002179   0.000308   0.000328
    14  H   -0.019311   0.001606   0.000290   0.002379  -0.000046  -0.000014
    15  C   -0.040035  -0.015207  -0.051974   0.222673   0.001157  -0.000256
    16  H    0.002380   0.000290   0.001605  -0.019308  -0.000027   0.000002
    17  H    0.002178   0.001026  -0.002492  -0.020633  -0.000024   0.000007
               7          8          9         10         11         12
     1  C    0.004365   0.004242   0.293863  -0.040153  -0.035660   0.222672
     2  C   -0.037397   0.004335  -0.112598   0.002513   0.004623  -0.051962
     3  C    0.391923  -0.035030  -0.112597   0.002513   0.004623  -0.015207
     4  C   -0.034703   0.390909   0.293854  -0.040154  -0.035660  -0.040040
     5  H   -0.000049  -0.000063  -0.028555  -0.000874  -0.001106  -0.018792
     6  H   -0.002243  -0.000049   0.003275  -0.000085  -0.000041   0.000486
     7  H    0.502909  -0.001649   0.003275  -0.000085  -0.000041  -0.000256
     8  H   -0.001649   0.517387  -0.028557  -0.000874  -0.001106   0.001157
     9  C    0.003275  -0.028557   5.415035   0.355392   0.371410  -0.064844
    10  H   -0.000085  -0.000874   0.355392   0.536365  -0.024499   0.003644
    11  H   -0.000041  -0.001106   0.371410  -0.024499   0.535100  -0.001962
    12  C   -0.000256   0.001157  -0.064844   0.003644  -0.001962   5.345481
    13  H    0.000007  -0.000024   0.001936  -0.000039   0.000054   0.374884
    14  H    0.000002  -0.000027  -0.000046  -0.000046   0.000645   0.367370
    15  C    0.000486  -0.018790  -0.064831   0.003643  -0.001962   0.321629
    16  H   -0.000014  -0.000046  -0.000046  -0.000046   0.000644  -0.043051
    17  H    0.000328   0.000308   0.001936  -0.000039   0.000054  -0.040129
              13         14         15         16         17
     1  C   -0.020625  -0.019311  -0.040035   0.002380   0.002178
     2  C   -0.002491   0.001606  -0.015207   0.000290   0.001026
     3  C    0.001025   0.000290  -0.051974   0.001605  -0.002492
     4  C    0.002179   0.002379   0.222673  -0.019308  -0.020633
     5  H    0.000308  -0.000046   0.001157  -0.000027  -0.000024
     6  H    0.000328  -0.000014  -0.000256   0.000002   0.000007
     7  H    0.000007   0.000002   0.000486  -0.000014   0.000328
     8  H   -0.000024  -0.000027  -0.018790  -0.000046   0.000308
     9  C    0.001936  -0.000046  -0.064831  -0.000046   0.001936
    10  H   -0.000039  -0.000046   0.003643  -0.000046  -0.000039
    11  H    0.000054   0.000645  -0.001962   0.000644   0.000054
    12  C    0.374884   0.367370   0.321629  -0.043051  -0.040129
    13  H    0.523667  -0.030268  -0.040130   0.002733  -0.004795
    14  H   -0.030268   0.534901  -0.043054  -0.004469   0.002733
    15  C   -0.040130  -0.043054   5.345447   0.367358   0.374855
    16  H    0.002733  -0.004469   0.367358   0.534943  -0.030251
    17  H   -0.004795   0.002733   0.374855  -0.030251   0.523753
 Mulliken charges:
               1
     1  C   -0.252647
     2  C   -0.135781
     3  C   -0.135784
     4  C   -0.252635
     5  H    0.167876
     6  H    0.173142
     7  H    0.173142
     8  H    0.167877
     9  C   -0.327903
    10  H    0.202823
    11  H    0.184882
    12  C   -0.361078
    13  H    0.191250
    14  H    0.187356
    15  C   -0.361008
    16  H    0.187305
    17  H    0.191182
 Sum of Mulliken charges =  -0.00000
 Mulliken charges with hydrogens summed into heavy atoms:
               1
     1  C   -0.084771
     2  C    0.037361
     3  C    0.037359
     4  C   -0.084758
     9  C    0.059802
    12  C    0.017528
    15  C    0.017479
 Electronic spatial extent (au):  <R**2>=            627.7585
 Charge=             -0.0000 electrons
 Dipole moment (field-independent basis, Debye):
    X=              0.2913    Y=             -0.0002    Z=              0.0605  Tot=              0.2975
 Quadrupole moment (field-independent basis, Debye-Ang):
   XX=            -44.6213   YY=            -41.6709   ZZ=            -42.3579
   XY=             -0.0005   XZ=              1.4634   YZ=              0.0002
 Traceless Quadrupole moment (field-independent basis, Debye-Ang):
   XX=             -1.7380   YY=              1.2125   ZZ=              0.5255
   XY=             -0.0005   XZ=              1.4634   YZ=              0.0002
 Octapole moment (field-independent basis, Debye-Ang**2):
  XXX=              3.6116  YYY=             -0.0015  ZZZ=             -0.8594  XYY=             -1.4637
  XXY=             -0.0009  XXZ=             -0.5600  XZZ=             -1.1726  YZZ=             -0.0002
  YYZ=             -0.7046  XYZ=              0.0005
 Hexadecapole moment (field-independent basis, Debye-Ang**3):
 XXXX=           -374.3941 YYYY=           -258.3267 ZZZZ=           -220.9332 XXXY=             -0.0025
 XXXZ=             10.7351 YYYX=             -0.0043 YYYZ=              0.0013 ZZZX=              2.4352
 ZZZY=              0.0012 XXYY=           -102.3650 XXZZ=            -90.3464 YYZZ=            -77.7852
 XXYZ=              0.0014 YYXZ=              3.8878 ZZXY=             -0.0007
 N-N= 2.979871542240D+02 E-N=-1.223182822206D+03  KE= 2.685215206718D+02
 1\1\GINC-TACHAS\FOpt\RB3LYP\3-21G\C7H10\LEOS\20-Oct-2019\0\\# opt=modr
 edundant b3lyp/3-21g geom=connectivity\\Title Card Required\\0,1\C,-0.
 4352052059,1.155090311,-0.3167603371\C,-1.1377962193,0.6744912741,0.90
 29656607\C,-1.1376991583,-0.6809072613,0.8981201931\C,-0.4350328733,-1
 .1526690054,-0.3250232211\H,-0.5344426052,2.1874245485,-0.6383764572\H
 ,-1.4656282123,1.3148262086,1.7108353744\H,-1.4654222716,-1.3270537389
 ,1.7013939966\H,-0.5341513589,-2.1826841894,-0.6540280773\C,-0.6525933
 387,0.0047616414,-1.3180743225\H,-1.6898138639,0.0059744099,-1.6794448
 421\H,0.0437767438,0.0078289606,-2.1594796206\C,1.3792612654,0.7499343
 106,0.0751070076\H,1.5825946302,1.221150036,1.0338750624\H,1.942959646
 5,1.2109010123,-0.7358677897\C,1.3793509976,-0.7500919075,0.0698727548
 \H,1.9433797467,-1.2054107659,-0.7443048302\H,1.5825433872,-1.22805190
 47,1.0256330581\\Version=ES64L-G16RevB.01\State=1-A\HF=-271.2143684\RM
 SD=3.820e-09\RMSF=1.249e-02\Dipole=0.106882,0.0002421,-0.0476868\Quadr
 upole=-1.6689523,0.9014402,0.7675121,0.0023739,-0.6384661,0.0004595\PG
 =C01 [X(C7H10)]\\@


 WHEN HAVING A MEETING OF THE MINDS,
 MAKE SURE YOU HAVE THE EQUIPMENT FOR IT.
 Job cpu time:       0 days  0 hours  5 minutes 51.3 seconds.
 Elapsed time:       0 days  0 hours  2 minutes 57.6 seconds.
 File lengths (MBytes):  RWF=     10 Int=      0 D2E=      0 Chk=      2 Scr=      1
 Normal termination of Gaussian 16 at Sun Oct 20 19:27:50 2019.
