 Entering Gaussian System, Link 0=g16
 Input=/home/leos/jsmolpage/PDB/Ciclo/C2.0.com
 Output=/home/leos/jsmolpage/PDB/Ciclo/C2.0.log
 Initial command:
 /opt/g16/l1.exe "/tmp/Gau-7598.inp" -scrdir="/tmp/"
 Entering Link 1 = /opt/g16/l1.exe PID=      7601.
  
 Copyright (c) 1988-2017, Gaussian, Inc.  All Rights Reserved.
  
 This is part of the Gaussian(R) 16 program.  It is based on
 the Gaussian(R) 09 system (copyright 2009, Gaussian, Inc.),
 the Gaussian(R) 03 system (copyright 2003, Gaussian, Inc.),
 the Gaussian(R) 98 system (copyright 1998, Gaussian, Inc.),
 the Gaussian(R) 94 system (copyright 1995, Gaussian, Inc.),
 the Gaussian 92(TM) system (copyright 1992, Gaussian, Inc.),
 the Gaussian 90(TM) system (copyright 1990, Gaussian, Inc.),
 the Gaussian 88(TM) system (copyright 1988, Gaussian, Inc.),
 the Gaussian 86(TM) system (copyright 1986, Carnegie Mellon
 University), and the Gaussian 82(TM) system (copyright 1983,
 Carnegie Mellon University). Gaussian is a federally registered
 trademark of Gaussian, Inc.
  
 This software contains proprietary and confidential information,
 including trade secrets, belonging to Gaussian, Inc.
  
 This software is provided under written license and may be
 used, copied, transmitted, or stored only in accord with that
 written license.
  
 The following legend is applicable only to US Government
 contracts under FAR:
  
                    RESTRICTED RIGHTS LEGEND
  
 Use, reproduction and disclosure by the US Government is
 subject to restrictions as set forth in subparagraphs (a)
 and (c) of the Commercial Computer Software - Restricted
 Rights clause in FAR 52.227-19.
  
 Gaussian, Inc.
 340 Quinnipiac St., Bldg. 40, Wallingford CT 06492
  
  
 ---------------------------------------------------------------
 Warning -- This program may not be used in any manner that
 competes with the business of Gaussian, Inc. or will provide
 assistance to any competitor of Gaussian, Inc.  The licensee
 of this program is prohibited from giving any competitor of
 Gaussian, Inc. access to this program.  By using this program,
 the user acknowledges that Gaussian, Inc. is engaged in the
 business of creating and licensing software in the field of
 computational chemistry and represents and warrants to the
 licensee that it is not a competitor of Gaussian, Inc. and that
 it will not use this program in any manner prohibited above.
 ---------------------------------------------------------------
  

 Cite this work as:
 Gaussian 16, Revision B.01,
 M. J. Frisch, G. W. Trucks, H. B. Schlegel, G. E. Scuseria, 
 M. A. Robb, J. R. Cheeseman, G. Scalmani, V. Barone, 
 G. A. Petersson, H. Nakatsuji, X. Li, M. Caricato, A. V. Marenich, 
 J. Bloino, B. G. Janesko, R. Gomperts, B. Mennucci, H. P. Hratchian, 
 J. V. Ortiz, A. F. Izmaylov, J. L. Sonnenberg, D. Williams-Young, 
 F. Ding, F. Lipparini, F. Egidi, J. Goings, B. Peng, A. Petrone, 
 T. Henderson, D. Ranasinghe, V. G. Zakrzewski, J. Gao, N. Rega, 
 G. Zheng, W. Liang, M. Hada, M. Ehara, K. Toyota, R. Fukuda, 
 J. Hasegawa, M. Ishida, T. Nakajima, Y. Honda, O. Kitao, H. Nakai, 
 T. Vreven, K. Throssell, J. A. Montgomery, Jr., J. E. Peralta, 
 F. Ogliaro, M. J. Bearpark, J. J. Heyd, E. N. Brothers, K. N. Kudin, 
 V. N. Staroverov, T. A. Keith, R. Kobayashi, J. Normand, 
 K. Raghavachari, A. P. Rendell, J. C. Burant, S. S. Iyengar, 
 J. Tomasi, M. Cossi, J. M. Millam, M. Klene, C. Adamo, R. Cammi, 
 J. W. Ochterski, R. L. Martin, K. Morokuma, O. Farkas, 
 J. B. Foresman, and D. J. Fox, Gaussian, Inc., Wallingford CT, 2016.
 
 ******************************************
 Gaussian 16:  ES64L-G16RevB.01 20-Dec-2017
                20-Oct-2019 
 ******************************************
 %nprocshared=2
 Will use up to    2 processors via shared memory.
 %mem=6GB
 %chk=C3.chk
 ------------------------------------------------
 # opt=modredundant b3lyp/3-21g geom=connectivity
 ------------------------------------------------
 1/18=120,19=15,26=3,38=1,57=2/1,3;
 2/9=110,12=2,17=6,18=5,40=1/2;
 3/5=5,11=2,25=1,30=1,71=1,74=-5/1,2,3;
 4//1;
 5/5=2,38=5/2;
 6/7=2,8=2,9=2,10=2,28=1/1;
 7//1,2,3,16;
 1/18=20,19=15,26=3/3(2);
 2/9=110/2;
 99//99;
 2/9=110/2;
 3/5=5,11=2,25=1,30=1,71=1,74=-5/1,2,3;
 4/5=5,16=3,69=1/1;
 5/5=2,38=5/2;
 7//1,2,3,16;
 1/18=20,19=15,26=3/3(-5);
 2/9=110/2;
 6/7=2,8=2,9=2,10=2,19=2,28=1/1;
 99/9=1/99;
 -------------------
 Title Card Required
 -------------------
 Symbolic Z-matrix:
 Charge =  0 Multiplicity = 1
 C                    -0.79369   1.18537  -0.33569 
 C                    -1.11924   0.73143   0.89728 
 C                    -1.11909  -0.73982   0.89047 
 C                    -0.79293  -1.18231  -0.34652 
 H                    -0.72426   2.21635  -0.65178 
 H                    -1.32329   1.33641   1.76992 
 H                    -1.32313  -1.35292   1.75743 
 H                    -0.7233   -2.21038  -0.67191 
 C                    -0.66368   0.00577  -1.28383 
 H                    -1.50946   0.00868  -1.99091 
 H                     0.26287   0.00925  -1.8612 
 C                     1.14289   0.8269    0.01239 
 H                     1.84769   1.23853   1.0734 
 H                     2.2045    1.24206  -0.73138 
 C                     1.14277  -0.82681   0.00941 
 H                     2.20406  -1.24443  -0.73004 
 H                     1.84698  -1.23871   1.0746 
 
 Add virtual bond connecting atoms C12        and C1         Dist= 3.78D+00.
 Add virtual bond connecting atoms C15        and C4         Dist= 3.78D+00.
 The following ModRedundant input section has been read:
 B       4      15 F                                                           
 B       1      12 F                                                           
 

 GradGradGradGradGradGradGradGradGradGradGradGradGradGradGradGradGradGrad
 Berny optimization.
 Initialization pass.
                           ----------------------------
                           !    Initial Parameters    !
                           ! (Angstroms and Degrees)  !
 --------------------------                            --------------------------
 ! Name  Definition              Value          Derivative Info.                !
 --------------------------------------------------------------------------------
 ! R1    R(1,2)                  1.3536         estimate D2E/DX2                !
 ! R2    R(1,5)                  1.0806         estimate D2E/DX2                !
 ! R3    R(1,9)                  1.519          estimate D2E/DX2                !
 ! R4    R(1,12)                 2.0            Frozen                          !
 ! R5    R(2,3)                  1.4713         estimate D2E/DX2                !
 ! R6    R(2,6)                  1.0813         estimate D2E/DX2                !
 ! R7    R(3,4)                  1.3536         estimate D2E/DX2                !
 ! R8    R(3,7)                  1.0813         estimate D2E/DX2                !
 ! R9    R(4,8)                  1.0806         estimate D2E/DX2                !
 ! R10   R(4,9)                  1.5188         estimate D2E/DX2                !
 ! R11   R(4,15)                 2.0            Frozen                          !
 ! R12   R(9,10)                 1.1024         estimate D2E/DX2                !
 ! R13   R(9,11)                 1.0917         estimate D2E/DX2                !
 ! R14   R(12,13)                1.3386         estimate D2E/DX2                !
 ! R15   R(12,14)                1.3611         estimate D2E/DX2                !
 ! R16   R(12,15)                1.6537         estimate D2E/DX2                !
 ! R17   R(15,16)                1.3592         estimate D2E/DX2                !
 ! R18   R(15,17)                1.3417         estimate D2E/DX2                !
 ! A1    A(2,1,5)              127.0035         estimate D2E/DX2                !
 ! A2    A(2,1,9)              109.191          estimate D2E/DX2                !
 ! A3    A(2,1,12)              90.816          estimate D2E/DX2                !
 ! A4    A(5,1,9)              123.5619         estimate D2E/DX2                !
 ! A5    A(5,1,12)              99.1894         estimate D2E/DX2                !
 ! A6    A(9,1,12)              83.4866         estimate D2E/DX2                !
 ! A7    A(1,2,3)              109.3362         estimate D2E/DX2                !
 ! A8    A(1,2,6)              126.362          estimate D2E/DX2                !
 ! A9    A(3,2,6)              124.281          estimate D2E/DX2                !
 ! A10   A(2,3,4)              109.3381         estimate D2E/DX2                !
 ! A11   A(2,3,7)              124.2827         estimate D2E/DX2                !
 ! A12   A(4,3,7)              126.358          estimate D2E/DX2                !
 ! A13   A(3,4,8)              126.9922         estimate D2E/DX2                !
 ! A14   A(3,4,9)              109.1931         estimate D2E/DX2                !
 ! A15   A(3,4,15)              90.7143         estimate D2E/DX2                !
 ! A16   A(8,4,9)              123.5673         estimate D2E/DX2                !
 ! A17   A(8,4,15)              99.2262         estimate D2E/DX2                !
 ! A18   A(9,4,15)              83.5936         estimate D2E/DX2                !
 ! A19   A(1,9,4)              102.4141         estimate D2E/DX2                !
 ! A20   A(1,9,10)             109.4285         estimate D2E/DX2                !
 ! A21   A(1,9,11)             113.5958         estimate D2E/DX2                !
 ! A22   A(4,9,10)             109.4265         estimate D2E/DX2                !
 ! A23   A(4,9,11)             113.6469         estimate D2E/DX2                !
 ! A24   A(10,9,11)            108.1745         estimate D2E/DX2                !
 ! A25   A(1,12,13)            126.3448         estimate D2E/DX2                !
 ! A26   A(1,12,14)            127.2624         estimate D2E/DX2                !
 ! A27   A(1,12,15)            100.3029         estimate D2E/DX2                !
 ! A28   A(13,12,14)            85.9096         estimate D2E/DX2                !
 ! A29   A(13,12,15)           107.9967         estimate D2E/DX2                !
 ! A30   A(14,12,15)           107.7033         estimate D2E/DX2                !
 ! A31   A(4,15,12)            100.2613         estimate D2E/DX2                !
 ! A32   A(4,15,16)            127.176          estimate D2E/DX2                !
 ! A33   A(4,15,17)            126.4918         estimate D2E/DX2                !
 ! A34   A(12,15,16)           107.9486         estimate D2E/DX2                !
 ! A35   A(12,15,17)           107.7897         estimate D2E/DX2                !
 ! A36   A(16,15,17)            85.8577         estimate D2E/DX2                !
 ! D1    D(5,1,2,3)            179.0338         estimate D2E/DX2                !
 ! D2    D(5,1,2,6)             -2.5772         estimate D2E/DX2                !
 ! D3    D(9,1,2,3)              4.5857         estimate D2E/DX2                !
 ! D4    D(9,1,2,6)           -177.0253         estimate D2E/DX2                !
 ! D5    D(12,1,2,3)           -78.8012         estimate D2E/DX2                !
 ! D6    D(12,1,2,6)            99.5878         estimate D2E/DX2                !
 ! D7    D(2,1,9,4)             -6.9373         estimate D2E/DX2                !
 ! D8    D(2,1,9,10)           109.0877         estimate D2E/DX2                !
 ! D9    D(2,1,9,11)          -129.9156         estimate D2E/DX2                !
 ! D10   D(5,1,9,4)            178.3828         estimate D2E/DX2                !
 ! D11   D(5,1,9,10)           -65.5922         estimate D2E/DX2                !
 ! D12   D(5,1,9,11)            55.4045         estimate D2E/DX2                !
 ! D13   D(12,1,9,4)            81.6553         estimate D2E/DX2                !
 ! D14   D(12,1,9,10)         -162.3197         estimate D2E/DX2                !
 ! D15   D(12,1,9,11)          -41.323          estimate D2E/DX2                !
 ! D16   D(2,1,12,13)          -51.5635         estimate D2E/DX2                !
 ! D17   D(2,1,12,14)         -168.2097         estimate D2E/DX2                !
 ! D18   D(2,1,12,15)           70.0118         estimate D2E/DX2                !
 ! D19   D(5,1,12,13)           76.1747         estimate D2E/DX2                !
 ! D20   D(5,1,12,14)          -40.4714         estimate D2E/DX2                !
 ! D21   D(5,1,12,15)         -162.25           estimate D2E/DX2                !
 ! D22   D(9,1,12,13)         -160.7874         estimate D2E/DX2                !
 ! D23   D(9,1,12,14)           82.5664         estimate D2E/DX2                !
 ! D24   D(9,1,12,15)          -39.2121         estimate D2E/DX2                !
 ! D25   D(1,2,3,4)              0.024          estimate D2E/DX2                !
 ! D26   D(1,2,3,7)            178.4371         estimate D2E/DX2                !
 ! D27   D(6,2,3,4)           -178.4059         estimate D2E/DX2                !
 ! D28   D(6,2,3,7)              0.0072         estimate D2E/DX2                !
 ! D29   D(2,3,4,8)           -179.0282         estimate D2E/DX2                !
 ! D30   D(2,3,4,9)             -4.6237         estimate D2E/DX2                !
 ! D31   D(2,3,4,15)            78.841          estimate D2E/DX2                !
 ! D32   D(7,3,4,8)              2.6            estimate D2E/DX2                !
 ! D33   D(7,3,4,9)            177.0045         estimate D2E/DX2                !
 ! D34   D(7,3,4,15)           -99.5308         estimate D2E/DX2                !
 ! D35   D(3,4,9,1)              6.9522         estimate D2E/DX2                !
 ! D36   D(3,4,9,10)          -109.0743         estimate D2E/DX2                !
 ! D37   D(3,4,9,11)           129.8961         estimate D2E/DX2                !
 ! D38   D(8,4,9,1)           -178.4109         estimate D2E/DX2                !
 ! D39   D(8,4,9,10)            65.5627         estimate D2E/DX2                !
 ! D40   D(8,4,9,11)           -55.4669         estimate D2E/DX2                !
 ! D41   D(15,4,9,1)           -81.5694         estimate D2E/DX2                !
 ! D42   D(15,4,9,10)          162.4042         estimate D2E/DX2                !
 ! D43   D(15,4,9,11)           41.3746         estimate D2E/DX2                !
 ! D44   D(3,4,15,12)          -70.3582         estimate D2E/DX2                !
 ! D45   D(3,4,15,16)          167.6135         estimate D2E/DX2                !
 ! D46   D(3,4,15,17)           50.9826         estimate D2E/DX2                !
 ! D47   D(8,4,15,12)          161.9318         estimate D2E/DX2                !
 ! D48   D(8,4,15,16)           39.9035         estimate D2E/DX2                !
 ! D49   D(8,4,15,17)          -76.7274         estimate D2E/DX2                !
 ! D50   D(9,4,15,12)           38.8768         estimate D2E/DX2                !
 ! D51   D(9,4,15,16)          -83.1515         estimate D2E/DX2                !
 ! D52   D(9,4,15,17)          160.2176         estimate D2E/DX2                !
 ! D53   D(1,12,15,4)            0.1931         estimate D2E/DX2                !
 ! D54   D(1,12,15,16)         134.9535         estimate D2E/DX2                !
 ! D55   D(1,12,15,17)        -133.66           estimate D2E/DX2                !
 ! D56   D(13,12,15,4)         134.0131         estimate D2E/DX2                !
 ! D57   D(13,12,15,16)        -91.2264         estimate D2E/DX2                !
 ! D58   D(13,12,15,17)          0.16           estimate D2E/DX2                !
 ! D59   D(14,12,15,4)        -134.5562         estimate D2E/DX2                !
 ! D60   D(14,12,15,16)          0.2042         estimate D2E/DX2                !
 ! D61   D(14,12,15,17)         91.5907         estimate D2E/DX2                !
 --------------------------------------------------------------------------------
 Trust Radius=3.00D-01 FncErr=1.00D-07 GrdErr=1.00D-06 EigMax=2.50D+02 EigMin=1.00D-04
 Number of steps in this run=    102 maximum allowed number of steps=    102.
 GradGradGradGradGradGradGradGradGradGradGradGradGradGradGradGradGradGrad

                          Input orientation:                          
 ---------------------------------------------------------------------
 Center     Atomic      Atomic             Coordinates (Angstroms)
 Number     Number       Type             X           Y           Z
 ---------------------------------------------------------------------
      1          6           0       -0.793692    1.185372   -0.335690
      2          6           0       -1.119238    0.731433    0.897277
      3          6           0       -1.119089   -0.739821    0.890465
      4          6           0       -0.792932   -1.182308   -0.346523
      5          1           0       -0.724258    2.216348   -0.651778
      6          1           0       -1.323294    1.336406    1.769924
      7          1           0       -1.323127   -1.352915    1.757429
      8          1           0       -0.723300   -2.210380   -0.671910
      9          6           0       -0.663676    0.005770   -1.283827
     10          1           0       -1.509459    0.008682   -1.990906
     11          1           0        0.262871    0.009247   -1.861203
     12          6           0        1.142888    0.826902    0.012389
     13          1           0        1.847686    1.238528    1.073403
     14          1           0        2.204501    1.242055   -0.731379
     15          6           0        1.142768   -0.826814    0.009413
     16          1           0        2.204064   -1.244430   -0.730043
     17          1           0        1.846983   -1.238710    1.074604
 ---------------------------------------------------------------------
                    Distance matrix (angstroms):
                    1          2          3          4          5
     1  C    0.000000
     2  C    1.353606   0.000000
     3  C    2.305582   1.471270   0.000000
     4  C    2.367705   2.305628   1.353629   0.000000
     5  H    1.080576   2.181869   3.357580   3.413028   0.000000
     6  H    2.176442   1.081270   2.264038   3.332349   2.645332
     7  H    3.332319   2.264054   1.081269   2.176425   4.347708
     8  H    3.413082   3.357585   2.181790   1.080582   4.426774
     9  C    1.518989   2.343360   2.343257   1.518807   2.299959
    10  H    2.153291   3.002706   3.002490   2.153106   2.698813
    11  H    2.196995   3.168752   3.169005   2.197448   2.703410
    12  C    2.000000   2.430916   2.888283   2.813030   2.420312
    13  H    2.994202   3.015096   3.570586   3.853505   3.247657
    14  H    3.024722   3.736375   4.195767   3.874307   3.087590
    15  C    2.813870   2.886712   2.428954   2.000000   3.630949
    16  H    3.878916   4.194823   3.731491   3.022074   4.534113
    17  H    3.852047   3.565302   3.013367   2.998655   4.639946
                    6          7          8          9         10
     6  H    0.000000
     7  H    2.689350   0.000000
     8  H    4.347670   2.645133   0.000000
     9  C    3.395745   3.395606   2.299852   0.000000
    10  H    3.992662   3.992328   2.698524   1.102415   0.000000
    11  H    4.178798   4.179159   2.704384   1.091725   1.777070
    12  C    3.070924   3.725318   3.629876   2.370254   3.423100
    13  H    3.248051   4.151810   4.642311   3.658301   4.708814
    14  H    4.325593   5.037082   4.527125   3.171756   4.111097
    15  C    3.722953   3.068058   2.420881   2.372531   3.425439
    16  H    5.035157   4.317449   3.083164   3.177044   4.117076
    17  H    4.143109   3.244825   3.255888   3.662559   4.713708
                   11         12         13         14         15
    11  H    0.000000
    12  C    2.225609   0.000000
    13  H    3.554530   1.338629   0.000000
    14  H    2.562469   1.361090   1.839719   0.000000
    15  C    2.229892   1.653718   2.427884   2.440546   0.000000
    16  H    2.572831   2.442891   3.089418   2.486485   1.359245
    17  H    3.561709   2.427098   2.477238   3.089270   1.341719
                   16         17
    16  H    0.000000
    17  H    1.839644   0.000000
 Stoichiometry    C7H10
 Framework group  C1[X(C7H10)]
 Deg. of freedom    45
 Full point group                 C1      NOp   1
 Largest Abelian subgroup         C1      NOp   1
 Largest concise Abelian subgroup C1      NOp   1
                         Standard orientation:                         
 ---------------------------------------------------------------------
 Center     Atomic      Atomic             Coordinates (Angstroms)
 Number     Number       Type             X           Y           Z
 ---------------------------------------------------------------------
      1          6           0       -0.529818   -1.185129    0.400245
      2          6           0       -1.066837   -0.733600   -0.757331
      3          6           0       -1.067024    0.737663   -0.753005
      4          6           0       -0.529631    1.182566    0.406987
      5          1           0       -0.405003   -2.215496    0.700927
      6          1           0       -1.420010   -1.340257   -1.579753
      7          1           0       -1.420450    1.349081   -1.571786
      8          1           0       -0.405130    2.211260    0.713493
      9          6           0       -0.236908   -0.003766    1.309043
     10          1           0       -0.945711   -0.006062    2.153384
     11          1           0        0.776474   -0.005541    1.715143
     12          6           0        1.315439   -0.825835   -0.282348
     13          1           0        1.823853   -1.238802   -1.449782
     14          1           0        2.491381   -1.238892    0.264562
     15          6           0        1.314125    0.827883   -0.282044
     16          1           0        2.488134    1.247586    0.259343
     17          1           0        1.820378    1.238428   -1.454807
 ---------------------------------------------------------------------
 Rotational constants (GHZ):           3.5878974           3.1749246           2.7489932
 Standard basis: 3-21G (6D, 7F)
 There are    83 symmetry adapted cartesian basis functions of A   symmetry.
 There are    83 symmetry adapted basis functions of A   symmetry.
    83 basis functions,   135 primitive gaussians,    83 cartesian basis functions
    26 alpha electrons       26 beta electrons
       nuclear repulsion energy       295.5605628486 Hartrees.
 NAtoms=   17 NActive=   17 NUniq=   17 SFac= 1.00D+00 NAtFMM=   60 NAOKFM=F Big=F
 Integral buffers will be    131072 words long.
 Raffenetti 2 integral format.
 Two-electron integral symmetry is turned on.
 One-electron integrals computed using PRISM.
 NBasis=    83 RedAO= T EigKep=  4.26D-03  NBF=    83
 NBsUse=    83 1.00D-06 EigRej= -1.00D+00 NBFU=    83
 ExpMin= 1.83D-01 ExpMax= 1.72D+02 ExpMxC= 1.72D+02 IAcc=3 IRadAn=         5 AccDes= 0.00D+00
 Harris functional with IExCor=  402 and IRadAn=       5 diagonalized for initial guess.
 HarFok:  IExCor=  402 AccDes= 0.00D+00 IRadAn=         5 IDoV= 1 UseB2=F ITyADJ=14
 ICtDFT=  3500011 ScaDFX=  1.000000  1.000000  1.000000  1.000000
 FoFCou: FMM=F IPFlag=           0 FMFlag=      100000 FMFlg1=           0
         NFxFlg=           0 DoJE=T BraDBF=F KetDBF=T FulRan=T
         wScrn=  0.000000 ICntrl=       500 IOpCl=  0 I1Cent=   200000004 NGrid=           0
         NMat0=    1 NMatS0=      1 NMatT0=    0 NMatD0=    1 NMtDS0=    0 NMtDT0=    0
 Petite list used in FoFCou.
 Keep R1 ints in memory in canonical form, NReq=7891700.
 Requested convergence on RMS density matrix=1.00D-08 within 128 cycles.
 Requested convergence on MAX density matrix=1.00D-06.
 Requested convergence on             energy=1.00D-06.
 No special actions if energy rises.
 Integral accuracy reduced to 1.0D-05 until final iterations.
 Initial convergence to 1.0D-05 achieved.  Increase integral accuracy.
 SCF Done:  E(RB3LYP) =  -270.973291420     A.U. after   14 cycles
            NFock= 14  Conv=0.68D-08     -V/T= 2.0115

 **********************************************************************

            Population analysis using the SCF Density.

 **********************************************************************

 Orbital symmetries:
       Occupied  (A) (A) (A) (A) (A) (A) (A) (A) (A) (A) (A) (A)
                 (A) (A) (A) (A) (A) (A) (A) (A) (A) (A) (A) (A)
                 (A) (A)
       Virtual   (A) (A) (A) (A) (A) (A) (A) (A) (A) (A) (A) (A)
                 (A) (A) (A) (A) (A) (A) (A) (A) (A) (A) (A) (A)
                 (A) (A) (A) (A) (A) (A) (A) (A) (A) (A) (A) (A)
                 (A) (A) (A) (A) (A) (A) (A) (A) (A) (A) (A) (A)
                 (A) (A) (A) (A) (A) (A) (A) (A) (A)
 The electronic state is 1-A.
 Alpha  occ. eigenvalues --  -10.15946 -10.15886 -10.15536 -10.15475 -10.13170
 Alpha  occ. eigenvalues --  -10.13058 -10.12944  -0.89022  -0.73908  -0.71700
 Alpha  occ. eigenvalues --   -0.66577  -0.56534  -0.54867  -0.53019  -0.50461
 Alpha  occ. eigenvalues --   -0.46103  -0.42083  -0.39116  -0.37454  -0.37432
 Alpha  occ. eigenvalues --   -0.36533  -0.32373  -0.29479  -0.29374  -0.25060
 Alpha  occ. eigenvalues --   -0.18655
 Alpha virt. eigenvalues --   -0.02977   0.02211   0.07487   0.08944   0.09273
 Alpha virt. eigenvalues --    0.12901   0.16227   0.17642   0.18124   0.18159
 Alpha virt. eigenvalues --    0.18614   0.18838   0.20072   0.20864   0.23199
 Alpha virt. eigenvalues --    0.24416   0.36579   0.39151   0.45701   0.67208
 Alpha virt. eigenvalues --    0.67449   0.71411   0.72058   0.74104   0.74333
 Alpha virt. eigenvalues --    0.75883   0.79391   0.81580   0.82337   0.85190
 Alpha virt. eigenvalues --    0.86820   0.89134   0.92733   0.92786   0.94578
 Alpha virt. eigenvalues --    0.95672   0.98460   1.01603   1.02056   1.03711
 Alpha virt. eigenvalues --    1.04955   1.05958   1.09542   1.11734   1.13447
 Alpha virt. eigenvalues --    1.20004   1.25031   1.35263   1.36035   1.44029
 Alpha virt. eigenvalues --    1.44509   1.83917   1.89172   1.92676   2.19075
 Alpha virt. eigenvalues --    2.22751   2.36592
          Condensed to atoms (all electrons):
               1          2          3          4          5          6
     1  C    5.432016   0.331549  -0.104156  -0.115301   0.396816  -0.041055
     2  C    0.331549   5.256095   0.514735  -0.104199  -0.032840   0.394119
     3  C   -0.104156   0.514735   5.256311   0.331354   0.003903  -0.027489
     4  C   -0.115301  -0.104199   0.331354   5.432553   0.002719   0.003357
     5  H    0.396816  -0.032840   0.003903   0.002719   0.456734  -0.001973
     6  H   -0.041055   0.394119  -0.027489   0.003357  -0.001973   0.482004
     7  H    0.003356  -0.027457   0.394093  -0.041063  -0.000041  -0.000970
     8  H    0.002720   0.003900  -0.032824   0.396776  -0.000019  -0.000041
     9  C    0.297059  -0.122945  -0.123016   0.296900  -0.024661   0.004445
    10  H   -0.041456   0.003687   0.003675  -0.041408  -0.001541  -0.000105
    11  H   -0.036356   0.004794   0.004794  -0.036238  -0.000072  -0.000064
    12  C    0.166364  -0.089130  -0.026532  -0.038517  -0.014522  -0.000828
    13  H   -0.007709  -0.001432   0.000296   0.000825   0.000053   0.000199
    14  H   -0.003622   0.001279   0.000574   0.001053   0.000222  -0.000001
    15  C   -0.038439  -0.026684  -0.089611   0.166387   0.000313  -0.000109
    16  H    0.001049   0.000575   0.001285  -0.003695   0.000002   0.000001
    17  H    0.000818   0.000282  -0.001433  -0.007618  -0.000002   0.000007
               7          8          9         10         11         12
     1  C    0.003356   0.002720   0.297059  -0.041456  -0.036356   0.166364
     2  C   -0.027457   0.003900  -0.122945   0.003687   0.004794  -0.089130
     3  C    0.394093  -0.032824  -0.123016   0.003675   0.004794  -0.026532
     4  C   -0.041063   0.396776   0.296900  -0.041408  -0.036238  -0.038517
     5  H   -0.000041  -0.000019  -0.024661  -0.001541  -0.000072  -0.014522
     6  H   -0.000970  -0.000041   0.004445  -0.000105  -0.000064  -0.000828
     7  H    0.481872  -0.001972   0.004444  -0.000105  -0.000064  -0.000109
     8  H   -0.001972   0.456713  -0.024673  -0.001541  -0.000075   0.000311
     9  C    0.004444  -0.024673   5.507462   0.343707   0.394188  -0.092356
    10  H   -0.000105  -0.001541   0.343707   0.550877  -0.026601   0.006238
    11  H   -0.000064  -0.000075   0.394188  -0.026601   0.478552  -0.021123
    12  C   -0.000109   0.000311  -0.092356   0.006238  -0.021123   5.550372
    13  H    0.000006  -0.000002   0.001644  -0.000034   0.000383   0.324841
    14  H    0.000001   0.000002  -0.001985  -0.000042   0.001837   0.306475
    15  C   -0.000838  -0.014495  -0.091642   0.006189  -0.021048   0.283197
    16  H   -0.000001   0.000226  -0.001878  -0.000043   0.001771  -0.028181
    17  H    0.000201   0.000051   0.001622  -0.000033   0.000381  -0.029510
              13         14         15         16         17
     1  C   -0.007709  -0.003622  -0.038439   0.001049   0.000818
     2  C   -0.001432   0.001279  -0.026684   0.000575   0.000282
     3  C    0.000296   0.000574  -0.089611   0.001285  -0.001433
     4  C    0.000825   0.001053   0.166387  -0.003695  -0.007618
     5  H    0.000053   0.000222   0.000313   0.000002  -0.000002
     6  H    0.000199  -0.000001  -0.000109   0.000001   0.000007
     7  H    0.000006   0.000001  -0.000838  -0.000001   0.000201
     8  H   -0.000002   0.000002  -0.014495   0.000226   0.000051
     9  C    0.001644  -0.001985  -0.091642  -0.001878   0.001622
    10  H   -0.000034  -0.000042   0.006189  -0.000043  -0.000033
    11  H    0.000383   0.001837  -0.021048   0.001771   0.000381
    12  C    0.324841   0.306475   0.283197  -0.028181  -0.029510
    13  H    0.662111  -0.053268  -0.029329   0.003261  -0.005560
    14  H   -0.053268   0.678514  -0.028428  -0.002763   0.003289
    15  C   -0.029329  -0.028428   5.549951   0.306690   0.324415
    16  H    0.003261  -0.002763   0.306690   0.676908  -0.053289
    17  H   -0.005560   0.003289   0.324415  -0.053289   0.663864
 Mulliken charges:
               1
     1  C   -0.243655
     2  C   -0.106327
     3  C   -0.105960
     4  C   -0.243884
     5  H    0.214909
     6  H    0.188505
     7  H    0.188645
     8  H    0.214942
     9  C   -0.368313
    10  H    0.198533
    11  H    0.254939
    12  C   -0.296990
    13  H    0.103714
    14  H    0.096863
    15  C   -0.296519
    16  H    0.098082
    17  H    0.102516
 Sum of Mulliken charges =  -0.00000
 Mulliken charges with hydrogens summed into heavy atoms:
               1
     1  C   -0.028746
     2  C    0.082177
     3  C    0.082686
     4  C   -0.028942
     9  C    0.085159
    12  C   -0.096413
    15  C   -0.095921
 Electronic spatial extent (au):  <R**2>=            640.7783
 Charge=             -0.0000 electrons
 Dipole moment (field-independent basis, Debye):
    X=             -0.8545    Y=              0.0044    Z=              0.4429  Tot=              0.9624
 Quadrupole moment (field-independent basis, Debye-Ang):
   XX=            -45.9748   YY=            -42.4412   ZZ=            -43.2101
   XY=              0.0016   XZ=              0.9398   YZ=              0.0137
 Traceless Quadrupole moment (field-independent basis, Debye-Ang):
   XX=             -2.0995   YY=              1.4342   ZZ=              0.6653
   XY=              0.0016   XZ=              0.9398   YZ=              0.0137
 Octapole moment (field-independent basis, Debye-Ang**2):
  XXX=              3.1225  YYY=             -0.0060  ZZZ=              0.6246  XYY=             -6.7158
  XXY=              0.0442  XXZ=             -2.5889  XZZ=             -4.7024  YZZ=             -0.0044
  YYZ=              1.1582  XYZ=              0.0135
 Hexadecapole moment (field-independent basis, Debye-Ang**3):
 XXXX=           -377.1284 YYYY=           -279.0575 ZZZZ=           -223.5877 XXXY=              0.0545
 XXXZ=              1.4867 YYYX=             -0.0102 YYYZ=              0.0807 ZZZX=              6.2684
 ZZZY=              0.0539 XXYY=           -110.9548 XXZZ=            -93.9191 YYZZ=            -82.6715
 XXYZ=              0.0061 YYXZ=              3.3589 ZZXY=             -0.0168
 N-N= 2.955605628486D+02 E-N=-1.217131710946D+03  KE= 2.678832255302D+02
 Calling FoFJK, ICntrl=      2127 FMM=F ISym2X=0 I1Cent= 0 IOpClX= 0 NMat=1 NMatS=1 NMatT=0.
 ***** Axes restored to original set *****
 -------------------------------------------------------------------
 Center     Atomic                   Forces (Hartrees/Bohr)
 Number     Number              X              Y              Z
 -------------------------------------------------------------------
      1        6           0.104014189    0.015287827   -0.040770035
      2        6          -0.048546726   -0.084946176    0.067059343
      3        6          -0.048620052    0.084409750    0.067842572
      4        6           0.103890901   -0.014974829   -0.040648873
      5        1          -0.011288693   -0.000523128   -0.002967467
      6        1           0.002522951   -0.001393917   -0.000245093
      7        1           0.002540685    0.001388253   -0.000231253
      8        1          -0.011262124    0.000542934   -0.002956434
      9        6          -0.050877009    0.000193795   -0.046192441
     10        1          -0.004197477   -0.000032218   -0.002096425
     11        1          -0.008810939   -0.000078426   -0.003443101
     12        6           0.120734527    0.002801147    0.028922619
     13        1          -0.062564543   -0.020853409   -0.043432311
     14        1          -0.072775222   -0.023699235    0.016779725
     15        6           0.120610527   -0.002871642    0.029768776
     16        1          -0.072683694    0.024133921    0.016433395
     17        1          -0.062687301    0.020615353   -0.043822997
 -------------------------------------------------------------------
 Cartesian Forces:  Max     0.120734527 RMS     0.047344568

 GradGradGradGradGradGradGradGradGradGradGradGradGradGradGradGradGradGrad
 Berny optimization.
 FormGI is forming the generalized inverse of G from B-inverse, IUseBI=4.
 Internal  Forces:  Max     0.078605323 RMS     0.020339302
 Search for a local minimum.
 Step number   1 out of a maximum of  102
 All quantities printed in internal units (Hartrees-Bohrs-Radians)
 Mixed Optimization -- RFO/linear search
 Second derivative matrix not updated -- first step.
 ITU=  0
     Eigenvalues ---    0.00434   0.01415   0.01794   0.01915   0.02326
     Eigenvalues ---    0.02411   0.02842   0.03178   0.03640   0.03742
     Eigenvalues ---    0.04051   0.05307   0.05538   0.05730   0.06746
     Eigenvalues ---    0.07244   0.07762   0.07766   0.07795   0.08375
     Eigenvalues ---    0.10151   0.11677   0.14536   0.14951   0.15847
     Eigenvalues ---    0.15922   0.15990   0.15992   0.16576   0.16657
     Eigenvalues ---    0.16791   0.19327   0.25435   0.27183   0.32856
     Eigenvalues ---    0.33416   0.34614   0.35841   0.35841   0.35924
     Eigenvalues ---    0.35925   0.45774   0.531241000.000001000.00000
     Eigenvalues --- 1000.000001000.000001000.000001000.000001000.00000
     Eigenvalues --- 1000.000001000.000001000.000001000.000001000.00000
     Eigenvalues --- 1000.000001000.000001000.000001000.000001000.00000
     Eigenvalues --- 1000.000001000.000001000.000001000.000001000.00000
     Eigenvalues --- 1000.000001000.000001000.000001000.000001000.00000
     Eigenvalues --- 1000.000001000.000001000.000001000.000001000.00000
     Eigenvalues --- 1000.000001000.000001000.000001000.000001000.00000
     Eigenvalues --- 1000.000001000.000001000.000001000.000001000.00000
     Eigenvalues --- 1000.000001000.000001000.000001000.000001000.00000
     Eigenvalues --- 1000.000001000.000001000.000001000.000001000.00000
     Eigenvalues --- 1000.000001000.000001000.000001000.000001000.00000
     Eigenvalues --- 1000.000001000.000001000.000001000.000001000.00000
     Eigenvalues --- 1000.000001000.000001000.000001000.000001000.00000
     Eigenvalues --- 1000.000001000.000001000.000001000.000001000.00000
 RFO step:  Lambda=-1.38820872D-01 EMin= 4.33675530D-03
 Linear search not attempted -- first point.
 Maximum step size (   0.300) exceeded in Quadratic search.
    -- Step size scaled by   0.508
 Iteration  1 RMS(Cart)=  0.02738318 RMS(Int)=  0.00077514
 Iteration  2 RMS(Cart)=  0.00075527 RMS(Int)=  0.00020493
 Iteration  3 RMS(Cart)=  0.00000060 RMS(Int)=  0.00020493
 Iteration  1 RMS(Cart)=  0.00001208 RMS(Int)=  0.00000082
 Iteration  2 RMS(Cart)=  0.00000011 RMS(Int)=  0.00000082
 Variable       Old X    -DE/DX   Delta X   Delta X   Delta X     New X
                                 (Linear)    (Quad)   (Total)
    R1        2.55794   0.07861   0.00000   0.05883   0.05885   2.61680
    R2        2.04199  -0.00036   0.00000  -0.00036  -0.00036   2.04163
    R3        2.87047   0.00637   0.00000   0.00965   0.00990   2.88037
    R4        3.77945  -0.01292   0.00000   0.00000  -0.00000   3.77945
    R5        2.78030  -0.06738   0.00000  -0.06829  -0.06824   2.71206
    R6        2.04330  -0.00145   0.00000  -0.00149  -0.00149   2.04182
    R7        2.55799   0.07859   0.00000   0.05884   0.05885   2.61684
    R8        2.04330  -0.00145   0.00000  -0.00148  -0.00148   2.04182
    R9        2.04200  -0.00035   0.00000  -0.00036  -0.00036   2.04164
   R10        2.87013   0.00634   0.00000   0.00957   0.00981   2.87994
   R11        3.77945  -0.01295   0.00000   0.00000  -0.00000   3.77945
   R12        2.08326   0.00456   0.00000   0.00490   0.00490   2.08817
   R13        2.06306  -0.00566   0.00000  -0.00593  -0.00593   2.05713
   R14        2.52964  -0.07378   0.00000  -0.12223  -0.12223   2.40742
   R15        2.57209  -0.07316   0.00000  -0.12505  -0.12505   2.44703
   R16        3.12507  -0.03696   0.00000  -0.05994  -0.06031   3.06476
   R17        2.56860  -0.07311   0.00000  -0.12465  -0.12465   2.44395
   R18        2.53548  -0.07402   0.00000  -0.12317  -0.12317   2.41231
    A1        2.21663  -0.00285   0.00000  -0.00496  -0.00514   2.21149
    A2        1.90574   0.00766   0.00000   0.01097   0.01030   1.91604
    A3        1.58504   0.00367   0.00000   0.01217   0.01195   1.59699
    A4        2.15656  -0.00622   0.00000  -0.01032  -0.01057   2.14599
    A5        1.73118   0.00340   0.00000   0.00751   0.00747   1.73865
    A6        1.45712   0.00815   0.00000   0.02593   0.02629   1.48341
    A7        1.90828  -0.00092   0.00000  -0.00127  -0.00146   1.90682
    A8        2.20543   0.00112   0.00000   0.00167   0.00172   2.20716
    A9        2.16911  -0.00034   0.00000  -0.00072  -0.00067   2.16844
   A10        1.90831  -0.00098   0.00000  -0.00135  -0.00153   1.90678
   A11        2.16914  -0.00030   0.00000  -0.00067  -0.00062   2.16852
   A12        2.20536   0.00114   0.00000   0.00169   0.00175   2.20711
   A13        2.21643  -0.00279   0.00000  -0.00484  -0.00502   2.21141
   A14        1.90578   0.00771   0.00000   0.01103   0.01036   1.91614
   A15        1.58326   0.00369   0.00000   0.01221   0.01200   1.59526
   A16        2.15666  -0.00634   0.00000  -0.01053  -0.01079   2.14587
   A17        1.73182   0.00345   0.00000   0.00757   0.00753   1.73935
   A18        1.45898   0.00805   0.00000   0.02573   0.02609   1.48508
   A19        1.78746  -0.01657   0.00000  -0.02816  -0.02856   1.75890
   A20        1.90989   0.01120   0.00000   0.02223   0.02232   1.93221
   A21        1.98262   0.00009   0.00000  -0.00371  -0.00375   1.97887
   A22        1.90985   0.01116   0.00000   0.02214   0.02222   1.93207
   A23        1.98351  -0.00002   0.00000  -0.00395  -0.00398   1.97954
   A24        1.88800  -0.00489   0.00000  -0.00657  -0.00662   1.88138
   A25        2.20513  -0.01427   0.00000  -0.03242  -0.03239   2.17274
   A26        2.22115  -0.01273   0.00000  -0.02888  -0.02885   2.19230
   A27        1.75062   0.00284   0.00000   0.00315   0.00306   1.75368
   A28        1.49941   0.02004   0.00000   0.04853   0.04826   1.54766
   A29        1.88490   0.00299   0.00000   0.00909   0.00909   1.89399
   A30        1.87978   0.00436   0.00000   0.00853   0.00832   1.88809
   A31        1.74989   0.00299   0.00000   0.00339   0.00331   1.75319
   A32        2.21964  -0.01262   0.00000  -0.02856  -0.02854   2.19111
   A33        2.20770  -0.01452   0.00000  -0.03301  -0.03298   2.17472
   A34        1.88406   0.00418   0.00000   0.00811   0.00791   1.89196
   A35        1.88129   0.00305   0.00000   0.00936   0.00937   1.89065
   A36        1.49850   0.02011   0.00000   0.04865   0.04838   1.54688
    D1        3.12473  -0.00233   0.00000  -0.01034  -0.01020   3.11453
    D2       -0.04498  -0.00741   0.00000  -0.02298  -0.02292  -0.06790
    D3        0.08004   0.01402   0.00000   0.03911   0.03948   0.11951
    D4       -3.08967   0.00894   0.00000   0.02647   0.02675  -3.06292
    D5       -1.37534   0.00431   0.00000   0.00769   0.00751  -1.36783
    D6        1.73814  -0.00077   0.00000  -0.00495  -0.00522   1.73292
    D7       -0.12108  -0.01997   0.00000  -0.05703  -0.05672  -0.17780
    D8        1.90394  -0.01087   0.00000  -0.03661  -0.03675   1.86719
    D9       -2.26745  -0.00900   0.00000  -0.03150  -0.03161  -2.29906
   D10        3.11337  -0.00449   0.00000  -0.00994  -0.00958   3.10378
   D11       -1.14480   0.00461   0.00000   0.01048   0.01039  -1.13441
   D12        0.96699   0.00648   0.00000   0.01559   0.01553   0.98252
   D13        1.42515  -0.01414   0.00000  -0.03631  -0.03573   1.38943
   D14       -2.83301  -0.00504   0.00000  -0.01589  -0.01575  -2.84876
   D15       -0.72122  -0.00317   0.00000  -0.01078  -0.01061  -0.73183
   D16       -0.89995   0.00255   0.00000   0.00447   0.00444  -0.89551
   D17       -2.93581   0.00042   0.00000  -0.00565  -0.00566  -2.94147
   D18        1.22194   0.00004   0.00000  -0.00123  -0.00107   1.22087
   D19        1.32950   0.00091   0.00000   0.00309   0.00301   1.33251
   D20       -0.70636  -0.00122   0.00000  -0.00703  -0.00709  -0.71346
   D21       -2.83180  -0.00160   0.00000  -0.00261  -0.00250  -2.83430
   D22       -2.80627  -0.00453   0.00000  -0.00452  -0.00434  -2.81061
   D23        1.44106  -0.00667   0.00000  -0.01464  -0.01444   1.42661
   D24       -0.68438  -0.00704   0.00000  -0.01022  -0.00985  -0.69423
   D25        0.00042  -0.00003   0.00000  -0.00007  -0.00007   0.00035
   D26        3.11432  -0.00494   0.00000  -0.01232  -0.01239   3.10193
   D27       -3.11377   0.00489   0.00000   0.01220   0.01227  -3.10150
   D28        0.00013  -0.00002   0.00000  -0.00005  -0.00005   0.00008
   D29       -3.12463   0.00234   0.00000   0.01034   0.01020  -3.11443
   D30       -0.08070  -0.01399   0.00000  -0.03903  -0.03940  -0.12010
   D31        1.37603  -0.00439   0.00000  -0.00782  -0.00764   1.36840
   D32        0.04538   0.00740   0.00000   0.02296   0.02291   0.06829
   D33        3.08931  -0.00892   0.00000  -0.02641  -0.02669   3.06262
   D34       -1.73714   0.00068   0.00000   0.00480   0.00507  -1.73207
   D35        0.12134   0.01995   0.00000   0.05699   0.05669   0.17803
   D36       -1.90370   0.01082   0.00000   0.03650   0.03663  -1.86707
   D37        2.26711   0.00904   0.00000   0.03159   0.03170   2.29882
   D38       -3.11386   0.00451   0.00000   0.01000   0.00964  -3.10421
   D39        1.14429  -0.00462   0.00000  -0.01050  -0.01041   1.13387
   D40       -0.96808  -0.00641   0.00000  -0.01540  -0.01534  -0.98342
   D41       -1.42365   0.01413   0.00000   0.03628   0.03570  -1.38795
   D42        2.83449   0.00500   0.00000   0.01579   0.01565   2.85014
   D43        0.72212   0.00322   0.00000   0.01088   0.01072   0.73284
   D44       -1.22798   0.00003   0.00000   0.00143   0.00127  -1.22671
   D45        2.92541  -0.00029   0.00000   0.00606   0.00607   2.93148
   D46        0.88981  -0.00238   0.00000  -0.00394  -0.00391   0.88590
   D47        2.82624   0.00160   0.00000   0.00269   0.00258   2.82882
   D48        0.69645   0.00129   0.00000   0.00731   0.00738   0.70383
   D49       -1.33915  -0.00080   0.00000  -0.00268  -0.00260  -1.34175
   D50        0.67853   0.00716   0.00000   0.01047   0.01010   0.68863
   D51       -1.45127   0.00684   0.00000   0.01510   0.01490  -1.43637
   D52        2.79632   0.00475   0.00000   0.00510   0.00492   2.80124
   D53        0.00337  -0.00007   0.00000  -0.00017  -0.00017   0.00320
   D54        2.35538  -0.01089   0.00000  -0.02758  -0.02773   2.32765
   D55       -2.33281   0.01365   0.00000   0.03177   0.03181  -2.30100
   D56        2.33897  -0.01363   0.00000  -0.03175  -0.03179   2.30718
   D57       -1.59220  -0.02445   0.00000  -0.05917  -0.05935  -1.65156
   D58        0.00279   0.00009   0.00000   0.00019   0.00019   0.00298
   D59       -2.34845   0.01087   0.00000   0.02750   0.02765  -2.32080
   D60        0.00356   0.00005   0.00000   0.00009   0.00009   0.00365
   D61        1.59856   0.02459   0.00000   0.05945   0.05963   1.65819
         Item               Value     Threshold  Converged?
 Maximum Force            0.078682     0.000450     NO 
 RMS     Force            0.020446     0.000300     NO 
 Maximum Displacement     0.080488     0.001800     NO 
 RMS     Displacement     0.027436     0.001200     NO 
 Predicted change in Energy=-6.113201D-02
 GradGradGradGradGradGradGradGradGradGradGradGradGradGradGradGradGradGrad

                          Input orientation:                          
 ---------------------------------------------------------------------
 Center     Atomic      Atomic             Coordinates (Angstroms)
 Number     Number       Type             X           Y           Z
 ---------------------------------------------------------------------
      1          6           0       -0.760379    1.175672   -0.337427
      2          6           0       -1.116299    0.713317    0.918391
      3          6           0       -1.116182   -0.721827    0.911855
      4          6           0       -0.759734   -1.172623   -0.348035
      5          1           0       -0.694738    2.207445   -0.651058
      6          1           0       -1.325215    1.317324    1.789582
      7          1           0       -1.325054   -1.333848    1.777447
      8          1           0       -0.693910   -2.201503   -0.671020
      9          6           0       -0.664381    0.005771   -1.309735
     10          1           0       -1.519157    0.008569   -2.010018
     11          1           0        0.249846    0.009081   -1.900669
     12          6           0        1.173584    0.811002    0.018666
     13          1           0        1.805826    1.213592    1.048783
     14          1           0        2.163972    1.216239   -0.710521
     15          6           0        1.173354   -0.810799    0.015635
     16          1           0        2.163772   -1.217842   -0.709604
     17          1           0        1.804390   -1.214205    1.049373
 ---------------------------------------------------------------------
                    Distance matrix (angstroms):
                    1          2          3          4          5
     1  C    0.000000
     2  C    1.384749   0.000000
     3  C    2.299523   1.435160   0.000000
     4  C    2.348319   2.299509   1.384773   0.000000
     5  H    1.080383   2.207555   3.346782   3.394246   0.000000
     6  H    2.205283   1.080483   2.229851   3.330017   2.673301
     7  H    3.330051   2.229897   1.080484   2.205278   4.340010
     8  H    3.394262   3.346762   2.207544   1.080392   4.408993
     9  C    1.524226   2.381049   2.380963   1.523998   2.298292
    10  H    2.176105   3.038839   3.038620   2.175805   2.713207
    11  H    2.196637   3.210825   3.211005   2.196895   2.699365
    12  C    2.000000   2.462237   2.896616   2.794093   2.426769
    13  H    2.916921   2.967506   3.507525   3.771898   3.182770
    14  H    2.948335   3.696819   4.140969   3.792903   3.026260
    15  C    2.794645   2.894893   2.460305   2.000000   3.611653
    16  H    3.797115   4.139880   3.692325   2.946126   4.461737
    17  H    3.769983   3.501846   2.964978   2.920481   4.565610
                    6          7          8          9         10
     6  H    0.000000
     7  H    2.651200   0.000000
     8  H    4.339960   2.673230   0.000000
     9  C    3.429670   3.429541   2.298018   0.000000
    10  H    4.023358   4.023015   2.712631   1.105010   0.000000
    11  H    4.220221   4.220462   2.699888   1.088589   1.772380
    12  C    3.104271   3.733213   3.610871   2.406483   3.465589
    13  H    3.219155   4.101561   4.568290   3.622618   4.675880
    14  H    4.293619   4.986605   4.455336   3.134306   4.088105
    15  C    3.730769   3.101548   2.427391   2.408456   3.467600
    16  H    4.984579   4.286115   3.022486   3.139400   4.093791
    17  H    4.092796   3.215249   3.189986   3.626094   4.679852
                   11         12         13         14         15
    11  H    0.000000
    12  C    2.276009   0.000000
    13  H    3.545587   1.273950   0.000000
    14  H    2.556866   1.294914   1.795391   0.000000
    15  C    2.279757   1.621804   2.359146   2.370129   0.000000
    16  H    2.566532   2.372142   3.021907   2.434081   1.293284
    17  H    3.551870   2.358334   2.427797   3.022182   1.276541
                   16         17
    16  H    0.000000
    17  H    1.795318   0.000000
 Stoichiometry    C7H10
 Framework group  C1[X(C7H10)]
 Deg. of freedom    45
 Full point group                 C1      NOp   1
 Largest Abelian subgroup         C1      NOp   1
 Largest concise Abelian subgroup C1      NOp   1
                         Standard orientation:                         
 ---------------------------------------------------------------------
 Center     Atomic      Atomic             Coordinates (Angstroms)
 Number     Number       Type             X           Y           Z
 ---------------------------------------------------------------------
      1          6           0       -0.501286   -1.175711    0.409375
      2          6           0       -1.092977   -0.715760   -0.755046
      3          6           0       -1.093697    0.719392   -0.750556
      4          6           0       -0.502035    1.172597    0.416550
      5          1           0       -0.374991   -2.206909    0.705869
      6          1           0       -1.464814   -1.321388   -1.568923
      7          1           0       -1.466187    1.329798   -1.560557
      8          1           0       -0.376766    2.202063    0.719459
      9          6           0       -0.221613   -0.004162    1.343465
     10          1           0       -0.925586   -0.006860    2.195205
     11          1           0        0.789277   -0.005463    1.747352
     12          6           0        1.327419   -0.809329   -0.312846
     13          1           0        1.750116   -1.212802   -1.444874
     14          1           0        2.440247   -1.212248    0.212578
     15          6           0        1.325411    0.812473   -0.311976
     16          1           0        2.436323    1.221826    0.208494
     17          1           0        1.745053    1.214987   -1.448391
 ---------------------------------------------------------------------
 Rotational constants (GHZ):           3.5994106           3.1299304           2.7752615
 Standard basis: 3-21G (6D, 7F)
 There are    83 symmetry adapted cartesian basis functions of A   symmetry.
 There are    83 symmetry adapted basis functions of A   symmetry.
    83 basis functions,   135 primitive gaussians,    83 cartesian basis functions
    26 alpha electrons       26 beta electrons
       nuclear repulsion energy       295.6715907795 Hartrees.
 NAtoms=   17 NActive=   17 NUniq=   17 SFac= 1.00D+00 NAtFMM=   60 NAOKFM=F Big=F
 Integral buffers will be    131072 words long.
 Raffenetti 2 integral format.
 Two-electron integral symmetry is turned on.
 One-electron integrals computed using PRISM.
 NBasis=    83 RedAO= T EigKep=  4.39D-03  NBF=    83
 NBsUse=    83 1.00D-06 EigRej= -1.00D+00 NBFU=    83
 Initial guess from the checkpoint file:  "C3.chk"
 B after Tr=     0.000000   -0.000000    0.000000
         Rot=    0.999961   -0.000117   -0.008862   -0.000199 Ang=  -1.02 deg.
 ExpMin= 1.83D-01 ExpMax= 1.72D+02 ExpMxC= 1.72D+02 IAcc=3 IRadAn=         5 AccDes= 0.00D+00
 Harris functional with IExCor=  402 and IRadAn=       5 diagonalized for initial guess.
 HarFok:  IExCor=  402 AccDes= 0.00D+00 IRadAn=         5 IDoV= 1 UseB2=F ITyADJ=14
 ICtDFT=  3500011 ScaDFX=  1.000000  1.000000  1.000000  1.000000
 FoFCou: FMM=F IPFlag=           0 FMFlag=      100000 FMFlg1=           0
         NFxFlg=           0 DoJE=T BraDBF=F KetDBF=T FulRan=T
         wScrn=  0.000000 ICntrl=       500 IOpCl=  0 I1Cent=   200000004 NGrid=           0
         NMat0=    1 NMatS0=      1 NMatT0=    0 NMatD0=    1 NMtDS0=    0 NMtDT0=    0
 Petite list used in FoFCou.
 Keep R1 ints in memory in canonical form, NReq=7891700.
 Requested convergence on RMS density matrix=1.00D-08 within 128 cycles.
 Requested convergence on MAX density matrix=1.00D-06.
 Requested convergence on             energy=1.00D-06.
 No special actions if energy rises.
 Integral accuracy reduced to 1.0D-05 until final iterations.
 Initial convergence to 1.0D-05 achieved.  Increase integral accuracy.
 SCF Done:  E(RB3LYP) =  -271.038504599     A.U. after   13 cycles
            NFock= 13  Conv=0.52D-08     -V/T= 2.0116
 Calling FoFJK, ICntrl=      2127 FMM=F ISym2X=0 I1Cent= 0 IOpClX= 0 NMat=1 NMatS=1 NMatT=0.
 ***** Axes restored to original set *****
 -------------------------------------------------------------------
 Center     Atomic                   Forces (Hartrees/Bohr)
 Number     Number              X              Y              Z
 -------------------------------------------------------------------
      1        6           0.099504133    0.011416498   -0.022142021
      2        6          -0.039974963   -0.064621258    0.040140389
      3        6          -0.040029521    0.064335894    0.040711503
      4        6           0.099402955   -0.011292817   -0.021969697
      5        1          -0.011279415    0.000286524   -0.001925599
      6        1           0.002614354    0.000456222   -0.000799673
      7        1           0.002628851   -0.000451318   -0.000803014
      8        1          -0.011249923   -0.000278129   -0.001906051
      9        6          -0.047783170    0.000147026   -0.029409647
     10        1          -0.003425725   -0.000035279    0.001678154
     11        1          -0.005536528   -0.000052929   -0.002896889
     12        6           0.100903181    0.003697074    0.023588373
     13        1          -0.056422743   -0.017856328   -0.038022485
     14        1          -0.066862355   -0.020451989    0.014023851
     15        6           0.100806345   -0.003834594    0.024620015
     16        1          -0.066687820    0.020824908    0.013640425
     17        1          -0.056607656    0.017710496   -0.038527633
 -------------------------------------------------------------------
 Cartesian Forces:  Max     0.100903181 RMS     0.039831203

 GradGradGradGradGradGradGradGradGradGradGradGradGradGradGradGradGradGrad
 Berny optimization.
 Using GEDIIS/GDIIS optimizer.
 FormGI is forming the generalized inverse of G from B-inverse, IUseBI=4.
 Internal  Forces:  Max     0.065435509 RMS     0.016709843
 Search for a local minimum.
 Step number   2 out of a maximum of  102
 All quantities printed in internal units (Hartrees-Bohrs-Radians)
 Mixed Optimization -- RFO/linear search
 Update second derivatives using D2CorX and points    1    2
 DE= -6.52D-02 DEPred=-6.11D-02 R= 1.07D+00
 TightC=F SS=  1.41D+00  RLast= 3.50D-01 DXNew= 5.0454D-01 1.0512D+00
 Trust test= 1.07D+00 RLast= 3.50D-01 DXMaxT set to 5.05D-01
 ITU=  1  0
 Use linear search instead of GDIIS.
 Linear search step of   0.600 exceeds DXMaxT=   0.505 but not scaled.
 Quartic linear search produced a step of  2.00000.
 Iteration  1 RMS(Cart)=  0.04930471 RMS(Int)=  0.01029841
 Iteration  2 RMS(Cart)=  0.00995438 RMS(Int)=  0.00121810
 Iteration  3 RMS(Cart)=  0.00004459 RMS(Int)=  0.00121692
 Iteration  4 RMS(Cart)=  0.00000003 RMS(Int)=  0.00121692
 Iteration  1 RMS(Cart)=  0.00007380 RMS(Int)=  0.00000506
 Iteration  2 RMS(Cart)=  0.00000067 RMS(Int)=  0.00000508
 Variable       Old X    -DE/DX   Delta X   Delta X   Delta X     New X
                                 (Linear)    (Quad)   (Total)
    R1        2.61680   0.05029   0.11770   0.00000   0.11784   2.73464
    R2        2.04163   0.00015  -0.00073   0.00000  -0.00073   2.04090
    R3        2.88037   0.00281   0.01979   0.00000   0.02111   2.90148
    R4        3.77945  -0.02099  -0.00000   0.00000  -0.00000   3.77945
    R5        2.71206  -0.04987  -0.13648   0.00000  -0.13606   2.57600
    R6        2.04182  -0.00089  -0.00297   0.00000  -0.00297   2.03885
    R7        2.61684   0.05026   0.11771   0.00000   0.11784   2.73468
    R8        2.04182  -0.00090  -0.00297   0.00000  -0.00297   2.03885
    R9        2.04164   0.00015  -0.00072   0.00000  -0.00072   2.04093
   R10        2.87994   0.00284   0.01962   0.00000   0.02094   2.90088
   R11        3.77945  -0.02102  -0.00000   0.00000   0.00000   3.77945
   R12        2.08817   0.00159   0.00981   0.00000   0.00981   2.09797
   R13        2.05713  -0.00308  -0.01185   0.00000  -0.01185   2.04528
   R14        2.40742  -0.06439  -0.24445   0.00000  -0.24445   2.16297
   R15        2.44703  -0.06544  -0.25011   0.00000  -0.25011   2.19692
   R16        3.06476  -0.03053  -0.12062   0.00000  -0.12279   2.94198
   R17        2.44395  -0.06527  -0.24930   0.00000  -0.24930   2.19466
   R18        2.41231  -0.06478  -0.24634   0.00000  -0.24634   2.16597
    A1        2.21149  -0.00167  -0.01028   0.00000  -0.01126   2.20023
    A2        1.91604   0.00289   0.02059   0.00000   0.01637   1.93241
    A3        1.59699   0.00364   0.02391   0.00000   0.02280   1.61979
    A4        2.14599  -0.00318  -0.02115   0.00000  -0.02264   2.12335
    A5        1.73865   0.00369   0.01493   0.00000   0.01471   1.75336
    A6        1.48341   0.00614   0.05259   0.00000   0.05459   1.53800
    A7        1.90682   0.00037  -0.00291   0.00000  -0.00396   1.90286
    A8        2.20716  -0.00144   0.00345   0.00000   0.00375   2.21091
    A9        2.16844   0.00089  -0.00134   0.00000  -0.00107   2.16737
   A10        1.90678   0.00032  -0.00306   0.00000  -0.00411   1.90267
   A11        2.16852   0.00092  -0.00124   0.00000  -0.00096   2.16756
   A12        2.20711  -0.00141   0.00349   0.00000   0.00379   2.21090
   A13        2.21141  -0.00162  -0.01003   0.00000  -0.01102   2.20039
   A14        1.91614   0.00293   0.02072   0.00000   0.01651   1.93265
   A15        1.59526   0.00366   0.02400   0.00000   0.02289   1.61815
   A16        2.14587  -0.00327  -0.02157   0.00000  -0.02304   2.12283
   A17        1.73935   0.00372   0.01506   0.00000   0.01484   1.75419
   A18        1.48508   0.00607   0.05218   0.00000   0.05420   1.53928
   A19        1.75890  -0.01055  -0.05712   0.00000  -0.05928   1.69962
   A20        1.93221   0.00818   0.04465   0.00000   0.04509   1.97730
   A21        1.97887  -0.00135  -0.00750   0.00000  -0.00773   1.97114
   A22        1.93207   0.00815   0.04444   0.00000   0.04487   1.97694
   A23        1.97954  -0.00142  -0.00795   0.00000  -0.00813   1.97141
   A24        1.88138  -0.00253  -0.01324   0.00000  -0.01348   1.86790
   A25        2.17274  -0.01397  -0.06478   0.00000  -0.06464   2.10810
   A26        2.19230  -0.01321  -0.05771   0.00000  -0.05752   2.13478
   A27        1.75368   0.00306   0.00613   0.00000   0.00562   1.75930
   A28        1.54766   0.01901   0.09651   0.00000   0.09472   1.64238
   A29        1.89399   0.00333   0.01819   0.00000   0.01822   1.91221
   A30        1.88809   0.00473   0.01663   0.00000   0.01529   1.90338
   A31        1.75319   0.00316   0.00661   0.00000   0.00611   1.75931
   A32        2.19111  -0.01310  -0.05707   0.00000  -0.05690   2.13420
   A33        2.17472  -0.01417  -0.06597   0.00000  -0.06582   2.10890
   A34        1.89196   0.00457   0.01581   0.00000   0.01449   1.90645
   A35        1.89065   0.00341   0.01874   0.00000   0.01880   1.90945
   A36        1.54688   0.01906   0.09675   0.00000   0.09495   1.64183
    D1        3.11453  -0.00250  -0.02039   0.00000  -0.01963   3.09491
    D2       -0.06790  -0.00716  -0.04585   0.00000  -0.04552  -0.11343
    D3        0.11951   0.01246   0.07896   0.00000   0.08086   0.20037
    D4       -3.06292   0.00780   0.05350   0.00000   0.05496  -3.00796
    D5       -1.36783   0.00464   0.01502   0.00000   0.01396  -1.35387
    D6        1.73292  -0.00002  -0.01043   0.00000  -0.01194   1.72098
    D7       -0.17780  -0.01743  -0.11345   0.00000  -0.11148  -0.28929
    D8        1.86719  -0.01028  -0.07349   0.00000  -0.07419   1.79300
    D9       -2.29906  -0.00850  -0.06321   0.00000  -0.06376  -2.36282
   D10        3.10378  -0.00327  -0.01917   0.00000  -0.01709   3.08669
   D11       -1.13441   0.00388   0.02079   0.00000   0.02021  -1.11420
   D12        0.98252   0.00567   0.03107   0.00000   0.03064   1.01316
   D13        1.38943  -0.01160  -0.07145   0.00000  -0.06793   1.32150
   D14       -2.84876  -0.00445  -0.03150   0.00000  -0.03063  -2.87939
   D15       -0.73183  -0.00266  -0.02122   0.00000  -0.02020  -0.75203
   D16       -0.89551   0.00011   0.00889   0.00000   0.00876  -0.88675
   D17       -2.94147  -0.00052  -0.01132   0.00000  -0.01142  -2.95290
   D18        1.22087  -0.00137  -0.00213   0.00000  -0.00115   1.21972
   D19        1.33251  -0.00015   0.00602   0.00000   0.00558   1.33809
   D20       -0.71346  -0.00078  -0.01419   0.00000  -0.01460  -0.72805
   D21       -2.83430  -0.00163  -0.00500   0.00000  -0.00433  -2.83862
   D22       -2.81061  -0.00247  -0.00868   0.00000  -0.00749  -2.81810
   D23        1.42661  -0.00310  -0.02889   0.00000  -0.02767   1.39894
   D24       -0.69423  -0.00395  -0.01970   0.00000  -0.01740  -0.71163
   D25        0.00035  -0.00002  -0.00013   0.00000  -0.00013   0.00022
   D26        3.10193  -0.00461  -0.02477   0.00000  -0.02506   3.07687
   D27       -3.10150   0.00458   0.02454   0.00000   0.02483  -3.07667
   D28        0.00008  -0.00001  -0.00010   0.00000  -0.00009  -0.00002
   D29       -3.11443   0.00251   0.02040   0.00000   0.01968  -3.09475
   D30       -0.12010  -0.01244  -0.07880   0.00000  -0.08071  -0.20080
   D31        1.36840  -0.00469  -0.01528   0.00000  -0.01420   1.35420
   D32        0.06829   0.00716   0.04582   0.00000   0.04553   0.11382
   D33        3.06262  -0.00778  -0.05338   0.00000  -0.05485   3.00777
   D34       -1.73207  -0.00004   0.01014   0.00000   0.01165  -1.72042
   D35        0.17803   0.01742   0.11337   0.00000   0.11143   0.28946
   D36       -1.86707   0.01025   0.07327   0.00000   0.07396  -1.79311
   D37        2.29882   0.00853   0.06340   0.00000   0.06397   2.36278
   D38       -3.10421   0.00329   0.01928   0.00000   0.01724  -3.08697
   D39        1.13387  -0.00388  -0.02082   0.00000  -0.02022   1.11365
   D40       -0.98342  -0.00561  -0.03069   0.00000  -0.03022  -1.01365
   D41       -1.38795   0.01159   0.07141   0.00000   0.06790  -1.32005
   D42        2.85014   0.00442   0.03130   0.00000   0.03043   2.88057
   D43        0.73284   0.00269   0.02143   0.00000   0.02043   0.75327
   D44       -1.22671   0.00142   0.00254   0.00000   0.00158  -1.22514
   D45        2.93148   0.00066   0.01214   0.00000   0.01226   2.94374
   D46        0.88590   0.00005  -0.00782   0.00000  -0.00769   0.87821
   D47        2.82882   0.00162   0.00516   0.00000   0.00449   2.83331
   D48        0.70383   0.00087   0.01476   0.00000   0.01517   0.71900
   D49       -1.34175   0.00026  -0.00520   0.00000  -0.00478  -1.34653
   D50        0.68863   0.00402   0.02019   0.00000   0.01790   0.70653
   D51       -1.43637   0.00327   0.02980   0.00000   0.02859  -1.40778
   D52        2.80124   0.00266   0.00984   0.00000   0.00864   2.80988
   D53        0.00320  -0.00005  -0.00034   0.00000  -0.00034   0.00286
   D54        2.32765  -0.01114  -0.05547   0.00000  -0.05638   2.27127
   D55       -2.30100   0.01297   0.06362   0.00000   0.06385  -2.23714
   D56        2.30718  -0.01294  -0.06358   0.00000  -0.06382   2.24336
   D57       -1.65156  -0.02403  -0.11871   0.00000  -0.11986  -1.77142
   D58        0.00298   0.00008   0.00038   0.00000   0.00037   0.00336
   D59       -2.32080   0.01114   0.05530   0.00000   0.05623  -2.26457
   D60        0.00365   0.00005   0.00018   0.00000   0.00019   0.00384
   D61        1.65819   0.02416   0.11926   0.00000   0.12042   1.77861
         Item               Value     Threshold  Converged?
 Maximum Force            0.065436     0.000450     NO 
 RMS     Force            0.016622     0.000300     NO 
 Maximum Displacement     0.145759     0.001800     NO 
 RMS     Displacement     0.054989     0.001200     NO 
 Predicted change in Energy=-9.686366D-02
 GradGradGradGradGradGradGradGradGradGradGradGradGradGradGradGradGradGrad

                          Input orientation:                          
 ---------------------------------------------------------------------
 Center     Atomic      Atomic             Coordinates (Angstroms)
 Number     Number       Type             X           Y           Z
 ---------------------------------------------------------------------
      1          6           0       -0.694514    1.154701   -0.341340
      2          6           0       -1.113163    0.677205    0.958988
      3          6           0       -1.113105   -0.685940    0.952988
      4          6           0       -0.694093   -1.151681   -0.351503
      5          1           0       -0.636409    2.187775   -0.650822
      6          1           0       -1.330823    1.279528    1.827250
      7          1           0       -1.330674   -1.296064    1.815813
      8          1           0       -0.635841   -2.181879   -0.670446
      9          6           0       -0.669024    0.005766   -1.359547
     10          1           0       -1.541385    0.008333   -2.046223
     11          1           0        0.220054    0.008769   -1.976749
     12          6           0        1.233922    0.778617    0.032421
     13          1           0        1.730057    1.159779    0.990887
     14          1           0        2.086840    1.159331   -0.659775
     15          6           0        1.233475   -0.778206    0.029284
     16          1           0        2.087038   -1.159601   -0.659723
     17          1           0        1.727342   -1.161068    0.990143
 ---------------------------------------------------------------------
                    Distance matrix (angstroms):
                    1          2          3          4          5
     1  C    0.000000
     2  C    1.447108   0.000000
     3  C    2.288769   1.363158   0.000000
     4  C    2.306405   2.288631   1.447130   0.000000
     5  H    1.079999   2.258451   3.325310   3.353340   0.000000
     6  H    2.263461   1.078911   2.162128   3.326134   2.729095
     7  H    3.326298   2.162233   1.078913   2.263480   4.324745
     8  H    3.353285   3.325245   2.258574   1.080012   4.369699
     9  C    1.535397   2.454321   2.454279   1.535079   2.294454
    10  H    2.222156   3.108385   3.108168   2.221624   2.741550
    11  H    2.196396   3.292845   3.292916   2.196300   2.690665
    12  C    2.000000   2.525395   2.915631   2.755121   2.439402
    13  H    2.766477   2.884059   3.389938   3.608512   3.058128
    14  H    2.799527   3.618406   4.030593   3.628967   2.910990
    15  C    2.755110   2.913637   2.523526   2.000000   3.571562
    16  H    3.632408   4.029314   3.614707   2.798169   4.315341
    17  H    3.605693   3.383591   2.880151   2.768294   4.415296
                    6          7          8          9         10
     6  H    0.000000
     7  H    2.575617   0.000000
     8  H    4.324676   2.729275   0.000000
     9  C    3.495157   3.495061   2.293852   0.000000
    10  H    4.082164   4.081809   2.740402   1.110200   0.000000
    11  H    4.300053   4.300102   2.690340   1.082315   1.762809
    12  C    3.170212   3.749925   3.571355   2.481144   3.551961
    13  H    3.175347   4.009955   4.418617   3.551320   4.610011
    14  H    4.228494   4.882305   4.310081   3.068417   4.051056
    15  C    3.747343   3.167763   2.440136   2.482532   3.553339
    16  H    4.880181   4.222281   2.908477   3.073062   4.056095
    17  H    4.001204   3.170397   3.063372   3.553184   4.612114
                   11         12         13         14         15
    11  H    0.000000
    12  C    2.378520   0.000000
    13  H    3.523038   1.144593   0.000000
    14  H    2.557950   1.162561   1.688781   0.000000
    15  C    2.381286   1.556826   2.219698   2.226451   0.000000
    16  H    2.566179   2.227905   2.869054   2.318932   1.161362
    17  H    3.527448   2.218800   2.320849   2.869795   1.146185
                   16         17
    16  H    0.000000
    17  H    1.688621   0.000000
 Stoichiometry    C7H10
 Framework group  C1[X(C7H10)]
 Deg. of freedom    45
 Full point group                 C1      NOp   1
 Largest Abelian subgroup         C1      NOp   1
 Largest concise Abelian subgroup C1      NOp   1
                         Standard orientation:                         
 ---------------------------------------------------------------------
 Center     Atomic      Atomic             Coordinates (Angstroms)
 Number     Number       Type             X           Y           Z
 ---------------------------------------------------------------------
      1          6           0       -0.444168   -1.155286    0.424361
      2          6           0       -1.146245   -0.679710   -0.748260
      3          6           0       -1.147618    0.683437   -0.742995
      4          6           0       -0.446175    1.151101    0.433208
      5          1           0       -0.315661   -2.187980    0.713196
      6          1           0       -1.552870   -1.283196   -1.544821
      7          1           0       -1.555403    1.292401   -1.534783
      8          1           0       -0.319602    2.181683    0.730370
      9          6           0       -0.192065   -0.005424    1.410113
     10          1           0       -0.887095   -0.009050    2.275829
     11          1           0        0.813301   -0.006208    1.810921
     12          6           0        1.349533   -0.775872   -0.374813
     13          1           0        1.617522   -1.156922   -1.420315
     14          1           0        2.337354   -1.154371    0.107368
     15          6           0        1.346628    0.780949   -0.372303
     16          1           0        2.332801    1.164557    0.106309
     17          1           0        1.610307    1.163915   -1.419943
 ---------------------------------------------------------------------
 Rotational constants (GHZ):           3.6253024           3.0372759           2.8236119
 Standard basis: 3-21G (6D, 7F)
 There are    83 symmetry adapted cartesian basis functions of A   symmetry.
 There are    83 symmetry adapted basis functions of A   symmetry.
    83 basis functions,   135 primitive gaussians,    83 cartesian basis functions
    26 alpha electrons       26 beta electrons
       nuclear repulsion energy       296.3699955123 Hartrees.
 NAtoms=   17 NActive=   17 NUniq=   17 SFac= 1.00D+00 NAtFMM=   60 NAOKFM=F Big=F
 Integral buffers will be    131072 words long.
 Raffenetti 2 integral format.
 Two-electron integral symmetry is turned on.
 One-electron integrals computed using PRISM.
 NBasis=    83 RedAO= T EigKep=  4.50D-03  NBF=    83
 NBsUse=    83 1.00D-06 EigRej= -1.00D+00 NBFU=    83
 Initial guess from the checkpoint file:  "C3.chk"
 B after Tr=     0.000000    0.000000   -0.000000
         Rot=    0.999853   -0.000404   -0.017160   -0.000282 Ang=  -1.97 deg.
 ExpMin= 1.83D-01 ExpMax= 1.72D+02 ExpMxC= 1.72D+02 IAcc=3 IRadAn=         5 AccDes= 0.00D+00
 Harris functional with IExCor=  402 and IRadAn=       5 diagonalized for initial guess.
 HarFok:  IExCor=  402 AccDes= 0.00D+00 IRadAn=         5 IDoV= 1 UseB2=F ITyADJ=14
 ICtDFT=  3500011 ScaDFX=  1.000000  1.000000  1.000000  1.000000
 FoFCou: FMM=F IPFlag=           0 FMFlag=      100000 FMFlg1=           0
         NFxFlg=           0 DoJE=T BraDBF=F KetDBF=T FulRan=T
         wScrn=  0.000000 ICntrl=       500 IOpCl=  0 I1Cent=   200000004 NGrid=           0
         NMat0=    1 NMatS0=      1 NMatT0=    0 NMatD0=    1 NMtDS0=    0 NMtDT0=    0
 Petite list used in FoFCou.
 Keep R1 ints in memory in canonical form, NReq=7891700.
 Requested convergence on RMS density matrix=1.00D-08 within 128 cycles.
 Requested convergence on MAX density matrix=1.00D-06.
 Requested convergence on             energy=1.00D-06.
 No special actions if energy rises.
 Integral accuracy reduced to 1.0D-05 until final iterations.
 Initial convergence to 1.0D-05 achieved.  Increase integral accuracy.
 SCF Done:  E(RB3LYP) =  -271.127846332     A.U. after   14 cycles
            NFock= 14  Conv=0.51D-08     -V/T= 2.0107
 Calling FoFJK, ICntrl=      2127 FMM=F ISym2X=0 I1Cent= 0 IOpClX= 0 NMat=1 NMatS=1 NMatT=0.
 ***** Axes restored to original set *****
 -------------------------------------------------------------------
 Center     Atomic                   Forces (Hartrees/Bohr)
 Number     Number              X              Y              Z
 -------------------------------------------------------------------
      1        6           0.088698171    0.009018272    0.003385826
      2        6          -0.023659862   -0.009841415   -0.000614811
      3        6          -0.023690859    0.009923663   -0.000585430
      4        6           0.088649839   -0.009143028    0.003578954
      5        1          -0.011237427    0.002167137    0.000121856
      6        1           0.002500398    0.004395092   -0.001658845
      7        1           0.002506530   -0.004371838   -0.001698175
      8        1          -0.011199712   -0.002182482    0.000154595
      9        6          -0.040186538    0.000057188    0.001249206
     10        1          -0.001680061   -0.000037300    0.008845701
     11        1           0.001036598   -0.000008917   -0.002739285
     12        6           0.041898348   -0.000746128    0.007471571
     13        1          -0.036627087   -0.004114631   -0.008267346
     14        1          -0.041131008   -0.006958070   -0.004316023
     15        6           0.041814559    0.000558633    0.008830884
     16        1          -0.040737012    0.007171419   -0.004780246
     17        1          -0.036954876    0.004112405   -0.008978433
 -------------------------------------------------------------------
 Cartesian Forces:  Max     0.088698171 RMS     0.023959787

 GradGradGradGradGradGradGradGradGradGradGradGradGradGradGradGradGradGrad
 Berny optimization.
 Using GEDIIS/GDIIS optimizer.
 FormGI is forming the generalized inverse of G from B-inverse, IUseBI=4.
 Internal  Forces:  Max     0.034837377 RMS     0.009435572
 Search for a local minimum.
 Step number   3 out of a maximum of  102
 All quantities printed in internal units (Hartrees-Bohrs-Radians)
 Mixed Optimization -- RFO/linear search
 Update second derivatives using D2CorX and points    2    3
 ITU=  0  1  0
 Use linear search instead of GDIIS.
     Eigenvalues ---    0.00429   0.01574   0.01926   0.02029   0.02335
     Eigenvalues ---    0.02488   0.02961   0.03292   0.03589   0.04255
     Eigenvalues ---    0.04652   0.05714   0.05775   0.05783   0.06105
     Eigenvalues ---    0.06374   0.07002   0.07023   0.07311   0.08170
     Eigenvalues ---    0.09871   0.11894   0.13843   0.14870   0.15632
     Eigenvalues ---    0.15884   0.15930   0.16177   0.16723   0.16766
     Eigenvalues ---    0.18021   0.19598   0.26317   0.26835   0.33361
     Eigenvalues ---    0.34065   0.34702   0.35841   0.35848   0.35924
     Eigenvalues ---    0.35941   0.45083   0.486111000.000001000.00000
     Eigenvalues --- 1000.000001000.000001000.000001000.000001000.00000
     Eigenvalues --- 1000.000001000.000001000.000001000.000001000.00000
     Eigenvalues --- 1000.000001000.000001000.000001000.000001000.00000
     Eigenvalues --- 1000.000001000.000001000.000001000.000001000.00000
     Eigenvalues --- 1000.000001000.000001000.000001000.000001000.00000
     Eigenvalues --- 1000.000001000.000001000.000001000.000001000.00000
     Eigenvalues --- 1000.000001000.000001000.000001000.000001000.00000
     Eigenvalues --- 1000.000001000.000001000.000001000.000001000.00000
     Eigenvalues --- 1000.000001000.000001000.000001000.000001000.00000
     Eigenvalues --- 1000.000001000.000001000.000001000.000001000.00000
     Eigenvalues --- 1000.000001000.000001000.000001000.000001000.00000
     Eigenvalues --- 1000.000001000.000001000.000001000.000001000.00000
     Eigenvalues --- 1000.000001000.000001000.000001000.000001000.00000
     Eigenvalues --- 1000.000001000.000001000.000001000.000001000.00000
 RFO step:  Lambda=-3.60803598D-02 EMin= 4.28997748D-03
 Quartic linear search produced a step of  0.56022.
 Iteration  1 RMS(Cart)=  0.04985706 RMS(Int)=  0.00482030
 Iteration  2 RMS(Cart)=  0.00390350 RMS(Int)=  0.00259754
 Iteration  3 RMS(Cart)=  0.00001138 RMS(Int)=  0.00259751
 Iteration  4 RMS(Cart)=  0.00000007 RMS(Int)=  0.00259751
 Iteration  1 RMS(Cart)=  0.00004491 RMS(Int)=  0.00000325
 Iteration  2 RMS(Cart)=  0.00000046 RMS(Int)=  0.00000326
 Variable       Old X    -DE/DX   Delta X   Delta X   Delta X     New X
                                 (Linear)    (Quad)   (Total)
    R1        2.73464   0.00586   0.06602  -0.02674   0.03939   2.77403
    R2        2.04090   0.00143  -0.00041   0.00516   0.00475   2.04565
    R3        2.90148  -0.00122   0.01183  -0.00942   0.00307   2.90455
    R4        3.77945  -0.03482  -0.00000   0.00000   0.00000   3.77945
    R5        2.57600  -0.00010  -0.07623   0.06995  -0.00593   2.57007
    R6        2.03885   0.00062  -0.00166   0.00347   0.00180   2.04065
    R7        2.73468   0.00582   0.06602  -0.02675   0.03939   2.77407
    R8        2.03885   0.00061  -0.00166   0.00345   0.00179   2.04064
    R9        2.04093   0.00143  -0.00040   0.00515   0.00475   2.04567
   R10        2.90088  -0.00107   0.01173  -0.00891   0.00347   2.90434
   R11        3.77945  -0.03484   0.00000   0.00000   0.00000   3.77945
   R12        2.09797  -0.00415   0.00549  -0.01889  -0.01340   2.08458
   R13        2.04528   0.00241  -0.00664   0.01355   0.00691   2.05219
   R14        2.16297  -0.02417  -0.13695   0.00579  -0.13116   2.03181
   R15        2.19692  -0.02988  -0.14012  -0.03299  -0.17311   2.02382
   R16        2.94198  -0.00813  -0.06879   0.01277  -0.05723   2.88474
   R17        2.19466  -0.02946  -0.13966  -0.03022  -0.16988   2.02477
   R18        2.16597  -0.02482  -0.13800   0.00233  -0.13568   2.03030
    A1        2.20023  -0.00060  -0.00631  -0.00062  -0.01171   2.18852
    A2        1.93241  -0.00514   0.00917  -0.06420  -0.06183   1.87057
    A3        1.61979   0.00438   0.01277   0.03889   0.05373   1.67352
    A4        2.12335   0.00307  -0.01268   0.03918   0.02187   2.14522
    A5        1.75336   0.00452   0.00824   0.03842   0.04563   1.79899
    A6        1.53800   0.00112   0.03058   0.01849   0.04979   1.58780
    A7        1.90286   0.00058  -0.00222   0.01197   0.00772   1.91058
    A8        2.21091  -0.00536   0.00210  -0.04146  -0.03864   2.17227
    A9        2.16737   0.00456  -0.00060   0.02828   0.02828   2.19565
   A10        1.90267   0.00055  -0.00230   0.01207   0.00775   1.91042
   A11        2.16756   0.00457  -0.00054   0.02816   0.02821   2.19577
   A12        2.21090  -0.00534   0.00213  -0.04146  -0.03863   2.17228
   A13        2.20039  -0.00055  -0.00618  -0.00055  -0.01152   2.18887
[...]
 ! D17   D(2,1,12,14)         -171.899          -DE/DX =    0.0002              !
 ! D18   D(2,1,12,15)           67.5429         -DE/DX =    0.0001              !
 ! D19   D(5,1,12,13)           75.0843         -DE/DX =    0.0                 !
 ! D20   D(5,1,12,14)          -42.3239         -DE/DX =    0.0002              !
 ! D21   D(5,1,12,15)         -162.8819         -DE/DX =    0.0                 !
 ! D22   D(9,1,12,13)         -159.76           -DE/DX =   -0.0004              !
 ! D23   D(9,1,12,14)           82.8318         -DE/DX =   -0.0002              !
 ! D24   D(9,1,12,15)          -37.7262         -DE/DX =   -0.0004              !
 ! D25   D(1,2,3,4)             -0.0011         -DE/DX =    0.0                 !
 ! D26   D(1,2,3,7)            171.8251         -DE/DX =   -0.0006              !
 ! D27   D(6,2,3,4)           -171.8264         -DE/DX =    0.0006              !
 ! D28   D(6,2,3,7)             -0.0002         -DE/DX =    0.0                 !
 ! D29   D(2,3,4,8)           -166.2426         -DE/DX =   -0.0006              !
 ! D30   D(2,3,4,9)            -24.9602         -DE/DX =   -0.0003              !
 ! D31   D(2,3,4,15)            72.7054         -DE/DX =   -0.0014              !
 ! D32   D(7,3,4,8)             21.7666         -DE/DX =    0.0                 !
 ! D33   D(7,3,4,9)            163.0489         -DE/DX =    0.0003              !
 ! D34   D(7,3,4,15)           -99.2855         -DE/DX =   -0.0008              !
 ! D35   D(3,4,9,1)             37.4257         -DE/DX =    0.0003              !
 ! D36   D(3,4,9,10)           -76.6046         -DE/DX =   -0.0001              !
 ! D37   D(3,4,9,11)           159.0576         -DE/DX =   -0.0003              !
 ! D38   D(8,4,9,1)            178.9952         -DE/DX =    0.0005              !
 ! D39   D(8,4,9,10)            64.9649         -DE/DX =    0.0001              !
 ! D40   D(8,4,9,11)           -59.3729         -DE/DX =   -0.0001              !
 ! D41   D(15,4,9,1)           -65.5637         -DE/DX =    0.0008              !
 ! D42   D(15,4,9,10)         -179.594          -DE/DX =    0.0004              !
 ! D43   D(15,4,9,11)           56.0682         -DE/DX =    0.0002              !
 ! D44   D(3,4,15,12)          -67.5409         -DE/DX =   -0.0001              !
 ! D45   D(3,4,15,16)          171.9018         -DE/DX =   -0.0002              !
 ! D46   D(3,4,15,17)           54.4925         -DE/DX =   -0.0001              !
 ! D47   D(8,4,15,12)          162.8838         -DE/DX =    0.0                 !
 ! D48   D(8,4,15,16)           42.3264         -DE/DX =   -0.0002              !
 ! D49   D(8,4,15,17)          -75.0828         -DE/DX =    0.0                 !
 ! D50   D(9,4,15,12)           37.7281         -DE/DX =    0.0004              !
 ! D51   D(9,4,15,16)          -82.8292         -DE/DX =    0.0002              !
 ! D52   D(9,4,15,17)          159.7615         -DE/DX =    0.0004              !
 ! D53   D(1,12,15,4)           -0.001          -DE/DX =    0.0                 !
 ! D54   D(1,12,15,16)         109.8606         -DE/DX =    0.0002              !
 ! D55   D(1,12,15,17)        -111.8372         -DE/DX =   -0.0001              !
 ! D56   D(13,12,15,4)         111.8361         -DE/DX =    0.0001              !
 ! D57   D(13,12,15,16)       -138.3023         -DE/DX =    0.0003              !
 ! D58   D(13,12,15,17)         -0.0001         -DE/DX =    0.0                 !
 ! D59   D(14,12,15,4)        -109.8635         -DE/DX =   -0.0002              !
 ! D60   D(14,12,15,16)         -0.0019         -DE/DX =    0.0                 !
 ! D61   D(14,12,15,17)        138.3003         -DE/DX =   -0.0003              !
 --------------------------------------------------------------------------------
 GradGradGradGradGradGradGradGradGradGradGradGradGradGradGradGradGradGrad

                          Input orientation:                          
 ---------------------------------------------------------------------
 Center     Atomic      Atomic             Coordinates (Angstroms)
 Number     Number       Type             X           Y           Z
 ---------------------------------------------------------------------
      1          6           0       -0.471647    1.158728   -0.316793
      2          6           0       -1.138844    0.679558    0.896810
      3          6           0       -1.138743   -0.685832    0.891999
      4          6           0       -0.471498   -1.156348   -0.324965
      5          1           0       -0.544135    2.192600   -0.637137
      6          1           0       -1.446319    1.313881    1.717227
      7          1           0       -1.446121   -1.325964    1.707928
      8          1           0       -0.543884   -2.187942   -0.652601
      9          6           0       -0.643134    0.004686   -1.314736
     10          1           0       -1.671566    0.005999   -1.705492
     11          1           0        0.072131    0.007642   -2.138773
     12          6           0        1.440501    0.734613    0.087948
     13          1           0        1.605583    1.227511    1.041407
     14          1           0        1.955402    1.220162   -0.738998
     15          6           0        1.440603   -0.734868    0.082740
     16          1           0        1.955591   -1.214511   -0.747721
     17          1           0        1.605777   -1.234551    1.032800
 ---------------------------------------------------------------------
                    Distance matrix (angstroms):
                    1          2          3          4          5
     1  C    0.000000
     2  C    1.465465   0.000000
     3  C    2.304039   1.365399   0.000000
     4  C    2.315090   2.304048   1.465470   0.000000
     5  H    1.084789   2.235166   3.313185   3.364251   0.000000
     6  H    2.260817   1.081661   2.185053   3.350053   2.670040
     7  H    3.350043   2.185052   1.081660   2.260821   4.323564
     8  H    3.364251   3.313187   2.235169   1.084791   4.380569
     9  C    1.535289   2.364766   2.364768   1.535287   2.292577
    10  H    2.167273   2.740337   2.740345   2.167272   2.682109
    11  H    2.222679   3.336569   3.336570   2.222679   2.721899
    12  C    2.000000   2.703759   3.052321   2.720656   2.567150
    13  H    2.482806   2.802328   3.348811   3.444419   2.893129
    14  H    2.464265   3.541536   3.983303   3.421852   2.683970
    15  C    2.720668   3.052353   2.703763   2.000000   3.609360
    16  H    3.421907   3.983404   3.541622   2.464319   4.227206
    17  H    3.444543   3.348918   2.802376   2.482884   4.376777
                    6          7          8          9         10
     6  H    0.000000
     7  H    2.639862   0.000000
     8  H    4.323567   2.670043   0.000000
     9  C    3.398808   3.398811   2.292573   0.000000
    10  H    3.671008   3.671019   2.682092   1.100165   0.000000
    11  H    4.345191   4.345192   2.721905   1.091168   1.796723
    12  C    3.365090   3.899090   3.609366   2.615693   3.665005
    13  H    3.127027   4.034524   4.376665   3.479000   4.447162
    14  H    4.196847   4.903118   4.227182   2.925960   3.945022
    15  C    3.899133   3.365086   2.567166   2.615691   3.665004
    16  H    4.903236   4.196936   2.684025   2.925973   3.945026
    17  H    4.034629   3.127017   2.893194   3.479114   4.447267
                   11         12         13         14         15
    11  H    0.000000
    12  C    2.712786   0.000000
    13  H    3.735385   1.085949   0.000000
    14  H    2.641265   1.088449   1.814461   0.000000
    15  C    2.712776   1.469490   2.190249   2.182296   0.000000
    16  H    2.641231   2.182371   3.047451   2.434689   1.088548
    17  H    3.735504   2.190358   2.462077   3.047479   1.086085
                   16         17
    16  H    0.000000
    17  H    1.814670   0.000000
 Stoichiometry    C7H10
 Framework group  C1[X(C7H10)]
 Deg. of freedom    45
 Full point group                 C1      NOp   1
 Largest Abelian subgroup         C1      NOp   1
 Largest concise Abelian subgroup C1      NOp   1
                         Standard orientation:                         
 ---------------------------------------------------------------------
 Center     Atomic      Atomic             Coordinates (Angstroms)
 Number     Number       Type             X           Y           Z
 ---------------------------------------------------------------------
      1          6           0       -0.327770   -1.157538    0.364425
      2          6           0       -1.202335   -0.682671   -0.711319
      3          6           0       -1.202284    0.682728   -0.711328
      4          6           0       -0.327701    1.157552    0.364428
      5          1           0       -0.340876   -2.190278    0.696153
      6          1           0       -1.651688   -1.319891   -1.461001
      7          1           0       -1.651585    1.319971   -1.461021
      8          1           0       -0.340776    2.190291    0.696166
      9          6           0       -0.318070    0.000006    1.372942
     10          1           0       -1.259633    0.000034    1.941996
     11          1           0        0.533522   -0.000021    2.055174
     12          6           0        1.480356   -0.734784   -0.378513
     13          1           0        1.471901   -1.231033   -1.344407
     14          1           0        2.135684   -1.217399    0.344224
     15          6           0        1.480411    0.734706   -0.378492
     16          1           0        2.135811    1.217290    0.344349
     17          1           0        1.471994    1.231044   -1.344493
 ---------------------------------------------------------------------
 Rotational constants (GHZ):           3.7679947           2.9588553           2.6921290

 **********************************************************************

            Population analysis using the SCF Density.

 **********************************************************************

 Orbital symmetries:
       Occupied  (A) (A) (A) (A) (A) (A) (A) (A) (A) (A) (A) (A)
                 (A) (A) (A) (A) (A) (A) (A) (A) (A) (A) (A) (A)
                 (A) (A)
       Virtual   (A) (A) (A) (A) (A) (A) (A) (A) (A) (A) (A) (A)
                 (A) (A) (A) (A) (A) (A) (A) (A) (A) (A) (A) (A)
                 (A) (A) (A) (A) (A) (A) (A) (A) (A) (A) (A) (A)
                 (A) (A) (A) (A) (A) (A) (A) (A) (A) (A) (A) (A)
                 (A) (A) (A) (A) (A) (A) (A) (A) (A)
 The electronic state is 1-A.
 Alpha  occ. eigenvalues --  -10.13412 -10.13327 -10.11898 -10.11803 -10.11702
 Alpha  occ. eigenvalues --  -10.11110 -10.10989  -0.85578  -0.73309  -0.69793
 Alpha  occ. eigenvalues --   -0.68828  -0.57222  -0.55144  -0.51439  -0.50712
 Alpha  occ. eigenvalues --   -0.45353  -0.43395  -0.39125  -0.37079  -0.36864
 Alpha  occ. eigenvalues --   -0.35953  -0.35140  -0.32796  -0.31219  -0.24376
 Alpha  occ. eigenvalues --   -0.21655
 Alpha virt. eigenvalues --    0.02470   0.03898   0.12749   0.15286   0.15434
 Alpha virt. eigenvalues --    0.15923   0.18464   0.18865   0.19482   0.20061
 Alpha virt. eigenvalues --    0.21373   0.21434   0.24039   0.24956   0.27151
 Alpha virt. eigenvalues --    0.31068   0.31273   0.39967   0.43068   0.66409
 Alpha virt. eigenvalues --    0.67581   0.70907   0.71353   0.72802   0.75381
 Alpha virt. eigenvalues --    0.75465   0.76996   0.77019   0.79086   0.82440
 Alpha virt. eigenvalues --    0.86290   0.91384   0.92318   0.93114   0.98842
 Alpha virt. eigenvalues --    1.00918   1.02041   1.02274   1.03372   1.04334
 Alpha virt. eigenvalues --    1.07283   1.07402   1.11115   1.11585   1.14307
 Alpha virt. eigenvalues --    1.18152   1.30585   1.36182   1.38504   1.41595
 Alpha virt. eigenvalues --    1.43382   1.76634   1.77861   2.02690   2.13773
 Alpha virt. eigenvalues --    2.14956   2.70961
          Condensed to atoms (all electrons):
               1          2          3          4          5          6
     1  C    5.419376   0.362300  -0.108031  -0.153272   0.389828  -0.035403
     2  C    0.362300   5.225197   0.506735  -0.108029  -0.036123   0.391741
     3  C   -0.108031   0.506735   5.225197   0.362301   0.004457  -0.037091
     4  C   -0.153272  -0.108029   0.362301   5.419373   0.004127   0.004317
     5  H    0.389828  -0.036123   0.004457   0.004127   0.516661  -0.001778
     6  H   -0.035403   0.391741  -0.037091   0.004317  -0.001778   0.503696
     7  H    0.004317  -0.037092   0.391741  -0.035403  -0.000049  -0.002161
     8  H    0.004127   0.004457  -0.036123   0.389828  -0.000060  -0.000049
     9  C    0.301389  -0.115608  -0.115605   0.301387  -0.029618   0.003475
    10  H   -0.041017   0.002501   0.002500  -0.041017  -0.000706  -0.000100
    11  H   -0.034780   0.004523   0.004523  -0.034780  -0.001094  -0.000043
    12  C    0.185865  -0.039934  -0.017979  -0.033139  -0.015697   0.000435
    13  H   -0.016554  -0.002661   0.000961   0.001849   0.000254   0.000268
    14  H   -0.015297   0.001052   0.000284   0.002067   0.000121  -0.000012
    15  C   -0.033136  -0.017976  -0.039934   0.185865   0.000822  -0.000242
    16  H    0.002067   0.000284   0.001052  -0.015298  -0.000023   0.000002
    17  H    0.001849   0.000961  -0.002662  -0.016556  -0.000020   0.000007
               7          8          9         10         11         12
     1  C    0.004317   0.004127   0.301389  -0.041017  -0.034780   0.185865
     2  C   -0.037092   0.004457  -0.115608   0.002501   0.004523  -0.039934
     3  C    0.391741  -0.036123  -0.115605   0.002500   0.004523  -0.017979
     4  C   -0.035403   0.389828   0.301387  -0.041017  -0.034780  -0.033139
     5  H   -0.000049  -0.000060  -0.029618  -0.000706  -0.001094  -0.015697
     6  H   -0.002161  -0.000049   0.003475  -0.000100  -0.000043   0.000435
     7  H    0.503696  -0.001778   0.003475  -0.000100  -0.000043  -0.000242
     8  H   -0.001778   0.516661  -0.029619  -0.000706  -0.001094   0.000822
     9  C    0.003475  -0.029619   5.409515   0.350430   0.371698  -0.054035
    10  H   -0.000100  -0.000706   0.350430   0.539129  -0.024540   0.003380
    11  H   -0.000043  -0.001094   0.371698  -0.024540   0.531225  -0.002244
    12  C   -0.000242   0.000822  -0.054035   0.003380  -0.002244   5.327894
    13  H    0.000007  -0.000020   0.001434  -0.000030   0.000060   0.377389
    14  H    0.000002  -0.000023  -0.000354  -0.000033   0.000651   0.369989
    15  C    0.000435  -0.015696  -0.054037   0.003380  -0.002244   0.352700
    16  H   -0.000012   0.000121  -0.000354  -0.000033   0.000651  -0.044538
    17  H    0.000268   0.000254   0.001433  -0.000030   0.000059  -0.041643
              13         14         15         16         17
     1  C   -0.016554  -0.015297  -0.033136   0.002067   0.001849
     2  C   -0.002661   0.001052  -0.017976   0.000284   0.000961
     3  C    0.000961   0.000284  -0.039934   0.001052  -0.002662
     4  C    0.001849   0.002067   0.185865  -0.015298  -0.016556
     5  H    0.000254   0.000121   0.000822  -0.000023  -0.000020
     6  H    0.000268  -0.000012  -0.000242   0.000002   0.000007
     7  H    0.000007   0.000002   0.000435  -0.000012   0.000268
     8  H   -0.000020  -0.000023  -0.015696   0.000121   0.000254
     9  C    0.001434  -0.000354  -0.054037  -0.000354   0.001433
    10  H   -0.000030  -0.000033   0.003380  -0.000033  -0.000030
    11  H    0.000060   0.000651  -0.002244   0.000651   0.000059
    12  C    0.377389   0.369989   0.352700  -0.044538  -0.041643
    13  H    0.520117  -0.030736  -0.041645   0.002834  -0.004785
    14  H   -0.030736   0.531449  -0.044538  -0.004622   0.002834
    15  C   -0.041645  -0.044538   5.327877   0.369980   0.377377
    16  H    0.002834  -0.004622   0.369980   0.531476  -0.030727
    17  H   -0.004785   0.002834   0.377377  -0.030727   0.520156
 Mulliken charges:
               1
     1  C   -0.233627
     2  C   -0.142328
     3  C   -0.142327
     4  C   -0.233621
     5  H    0.168896
     6  H    0.172939
     7  H    0.172939
     8  H    0.168896
     9  C   -0.345007
    10  H    0.206991
    11  H    0.187473
    12  C   -0.369021
    13  H    0.191258
    14  H    0.187165
    15  C   -0.368988
    16  H    0.187139
    17  H    0.191223
 Sum of Mulliken charges =  -0.00000
 Mulliken charges with hydrogens summed into heavy atoms:
               1
     1  C   -0.064731
     2  C    0.030611
     3  C    0.030612
     4  C   -0.064725
     9  C    0.049456
    12  C    0.009402
    15  C    0.009375
 Electronic spatial extent (au):  <R**2>=            636.7139
 Charge=             -0.0000 electrons
 Dipole moment (field-independent basis, Debye):
    X=              0.2402    Y=             -0.0001    Z=              0.1469  Tot=              0.2816
 Quadrupole moment (field-independent basis, Debye-Ang):
   XX=            -45.0188   YY=            -41.4472   ZZ=            -41.9598
   XY=             -0.0001   XZ=              1.4952   YZ=              0.0000
 Traceless Quadrupole moment (field-independent basis, Debye-Ang):
   XX=             -2.2102   YY=              1.3614   ZZ=              0.8488
   XY=             -0.0001   XZ=              1.4952   YZ=              0.0000
 Octapole moment (field-independent basis, Debye-Ang**2):
  XXX=              3.3015  YYY=             -0.0008  ZZZ=             -0.9801  XYY=             -1.0805
  XXY=             -0.0008  XXZ=             -0.0143  XZZ=             -1.2613  YZZ=              0.0001
  YYZ=             -0.6286  XYZ=              0.0001
 Hexadecapole moment (field-independent basis, Debye-Ang**3):
 XXXX=           -391.5139 YYYY=           -256.6749 ZZZZ=           -220.2175 XXXY=             -0.0008
 XXXZ=             10.5853 YYYX=             -0.0014 YYYZ=              0.0001 ZZZX=              3.1743
 ZZZY=             -0.0002 XXYY=           -104.6351 XXZZ=            -92.0040 YYZZ=            -77.2492
 XXYZ=              0.0007 YYXZ=              3.7758 ZZXY=             -0.0001
 N-N= 2.963628811500D+02 E-N=-1.219927052406D+03  KE= 2.685303202688D+02
 1\1\GINC-TACHAS\FOpt\RB3LYP\3-21G\C7H10\LEOS\20-Oct-2019\0\\# opt=modr
 edundant b3lyp/3-21g geom=connectivity\\Title Card Required\\0,1\C,-0.
 4716474675,1.1587278255,-0.3167926449\C,-1.138844163,0.6795581513,0.89
 68099488\C,-1.1387434829,-0.6858322253,0.8919994609\C,-0.4714982375,-1
 .1563479336,-0.3249649391\H,-0.544135419,2.1926003406,-0.6371371534\H,
 -1.4463186582,1.3138808678,1.7172272281\H,-1.4461209528,-1.3259642933,
 1.7079277022\H,-0.5438841487,-2.1879417152,-0.6526008902\C,-0.64313389
 18,0.0046863591,-1.3147362866\H,-1.6715656521,0.0059988578,-1.70549179
 57\H,0.0721308787,0.0076421112,-2.1387725108\C,1.4405009716,0.73461293
 ,0.0879478734\H,1.6055833432,1.2275113662,1.0414068671\H,1.9554018261,
 1.2201624154,-0.7389981511\C,1.440602977,-0.734867846,0.0827401965\H,1
 .9555905822,-1.2145111077,-0.7477210007\H,1.6057767744,-1.2345509537,1
 .0328004256\\Version=ES64L-G16RevB.01\State=1-A\HF=-271.1984292\RMSD=6
 .319e-09\RMSF=1.079e-02\Dipole=0.0826073,0.0002987,-0.0738345\Quadrupo
 le=-1.9626235,1.0121926,0.9504309,0.0022014,-0.6382766,0.0001926\PG=C0
 1 [X(C7H10)]\\@


 LET US LEARN TO DREAM, GENTLEMEN, THEN PERHAPS WE SHALL
 DISCOVER THE TRUTH;  BUT LET US BEWARE OF PUBLISHING
 OUR DREAMS ABROAD BEFORE THEY HAVE BEEN SCRUTINIZED
 BY OUR VIGILANT INTELLECT ... LET US ALWAYS ALLOW
 THE FRUIT TO HANG UNTIL IT IS RIPE.  UNRIPE FRUIT
 BRINGS EVEN THE GROWER BUT LITTLE PROFIT; IT DAMAGES
 THE HEALTH OF THOSE WHO CONSUME IT; IT ENDANGERS
 PARTICULARLY THE YOUTH WHO CANNOT YET DISTINGUISH
 BETWEEN RIPE AND UNRIPE FRUIT.

                                  -- KEKULE, 1890
 Job cpu time:       0 days  0 hours  6 minutes 18.2 seconds.
 Elapsed time:       0 days  0 hours  3 minutes 11.1 seconds.
 File lengths (MBytes):  RWF=     10 Int=      0 D2E=      0 Chk=      2 Scr=      1
 Normal termination of Gaussian 16 at Sun Oct 20 19:27:29 2019.
