 Entering Gaussian System, Link 0=g16
 Input=/home/leos/jsmolpage/PDB/Ciclo/C2.1.com
 Output=/home/leos/jsmolpage/PDB/Ciclo/C2.1.log
 Initial command:
 /opt/g16/l1.exe "/tmp/Gau-7488.inp" -scrdir="/tmp/"
 Entering Link 1 = /opt/g16/l1.exe PID=      7492.
  
 Copyright (c) 1988-2017, Gaussian, Inc.  All Rights Reserved.
  
 This is part of the Gaussian(R) 16 program.  It is based on
 the Gaussian(R) 09 system (copyright 2009, Gaussian, Inc.),
 the Gaussian(R) 03 system (copyright 2003, Gaussian, Inc.),
 the Gaussian(R) 98 system (copyright 1998, Gaussian, Inc.),
 the Gaussian(R) 94 system (copyright 1995, Gaussian, Inc.),
 the Gaussian 92(TM) system (copyright 1992, Gaussian, Inc.),
 the Gaussian 90(TM) system (copyright 1990, Gaussian, Inc.),
 the Gaussian 88(TM) system (copyright 1988, Gaussian, Inc.),
 the Gaussian 86(TM) system (copyright 1986, Carnegie Mellon
 University), and the Gaussian 82(TM) system (copyright 1983,
 Carnegie Mellon University). Gaussian is a federally registered
 trademark of Gaussian, Inc.
  
 This software contains proprietary and confidential information,
 including trade secrets, belonging to Gaussian, Inc.
  
 This software is provided under written license and may be
 used, copied, transmitted, or stored only in accord with that
 written license.
  
 The following legend is applicable only to US Government
 contracts under FAR:
  
                    RESTRICTED RIGHTS LEGEND
  
 Use, reproduction and disclosure by the US Government is
 subject to restrictions as set forth in subparagraphs (a)
 and (c) of the Commercial Computer Software - Restricted
 Rights clause in FAR 52.227-19.
  
 Gaussian, Inc.
 340 Quinnipiac St., Bldg. 40, Wallingford CT 06492
  
  
 ---------------------------------------------------------------
 Warning -- This program may not be used in any manner that
 competes with the business of Gaussian, Inc. or will provide
 assistance to any competitor of Gaussian, Inc.  The licensee
 of this program is prohibited from giving any competitor of
 Gaussian, Inc. access to this program.  By using this program,
 the user acknowledges that Gaussian, Inc. is engaged in the
 business of creating and licensing software in the field of
 computational chemistry and represents and warrants to the
 licensee that it is not a competitor of Gaussian, Inc. and that
 it will not use this program in any manner prohibited above.
 ---------------------------------------------------------------
  

 Cite this work as:
 Gaussian 16, Revision B.01,
 M. J. Frisch, G. W. Trucks, H. B. Schlegel, G. E. Scuseria, 
 M. A. Robb, J. R. Cheeseman, G. Scalmani, V. Barone, 
 G. A. Petersson, H. Nakatsuji, X. Li, M. Caricato, A. V. Marenich, 
 J. Bloino, B. G. Janesko, R. Gomperts, B. Mennucci, H. P. Hratchian, 
 J. V. Ortiz, A. F. Izmaylov, J. L. Sonnenberg, D. Williams-Young, 
 F. Ding, F. Lipparini, F. Egidi, J. Goings, B. Peng, A. Petrone, 
 T. Henderson, D. Ranasinghe, V. G. Zakrzewski, J. Gao, N. Rega, 
 G. Zheng, W. Liang, M. Hada, M. Ehara, K. Toyota, R. Fukuda, 
 J. Hasegawa, M. Ishida, T. Nakajima, Y. Honda, O. Kitao, H. Nakai, 
 T. Vreven, K. Throssell, J. A. Montgomery, Jr., J. E. Peralta, 
 F. Ogliaro, M. J. Bearpark, J. J. Heyd, E. N. Brothers, K. N. Kudin, 
 V. N. Staroverov, T. A. Keith, R. Kobayashi, J. Normand, 
 K. Raghavachari, A. P. Rendell, J. C. Burant, S. S. Iyengar, 
 J. Tomasi, M. Cossi, J. M. Millam, M. Klene, C. Adamo, R. Cammi, 
 J. W. Ochterski, R. L. Martin, K. Morokuma, O. Farkas, 
 J. B. Foresman, and D. J. Fox, Gaussian, Inc., Wallingford CT, 2016.
 
 ******************************************
 Gaussian 16:  ES64L-G16RevB.01 20-Dec-2017
                20-Oct-2019 
 ******************************************
 %nprocshared=2
 Will use up to    2 processors via shared memory.
 %mem=6GB
 %chk=C3.chk
 ------------------------------------------------
 # opt=modredundant b3lyp/3-21g geom=connectivity
 ------------------------------------------------
 1/18=120,19=15,26=3,38=1,57=2/1,3;
 2/9=110,12=2,17=6,18=5,40=1/2;
 3/5=5,11=2,25=1,30=1,71=1,74=-5/1,2,3;
 4//1;
 5/5=2,38=5/2;
 6/7=2,8=2,9=2,10=2,28=1/1;
 7//1,2,3,16;
 1/18=20,19=15,26=3/3(2);
 2/9=110/2;
 99//99;
 2/9=110/2;
 3/5=5,11=2,25=1,30=1,71=1,74=-5/1,2,3;
 4/5=5,16=3,69=1/1;
 5/5=2,38=5/2;
 7//1,2,3,16;
 1/18=20,19=15,26=3/3(-5);
 2/9=110/2;
 6/7=2,8=2,9=2,10=2,19=2,28=1/1;
 99/9=1/99;
 -------------------
 Title Card Required
 -------------------
 Symbolic Z-matrix:
 Charge =  0 Multiplicity = 1
 C                    -0.79369   1.18537  -0.33569 
 C                    -1.11924   0.73143   0.89728 
 C                    -1.11909  -0.73982   0.89047 
 C                    -0.79293  -1.18231  -0.34652 
 H                    -0.72426   2.21635  -0.65178 
 H                    -1.32329   1.33641   1.76992 
 H                    -1.32313  -1.35292   1.75743 
 H                    -0.7233   -2.21038  -0.67191 
 C                    -0.66368   0.00577  -1.28383 
 H                    -1.50946   0.00868  -1.99091 
 H                     0.26287   0.00925  -1.8612 
 C                     1.23972   0.80898   0.02979 
 H                     1.84769   1.23853   1.0734 
 H                     2.2045    1.24206  -0.73138 
 C                     1.23955  -0.80904   0.02721 
 H                     2.20406  -1.24443  -0.73004 
 H                     1.84698  -1.23871   1.0746 
 
 Add virtual bond connecting atoms C12        and C1         Dist= 3.97D+00.
 Add virtual bond connecting atoms C15        and C4         Dist= 3.97D+00.
 The following ModRedundant input section has been read:
 B       4      15 F                                                           
 B       1      12 F                                                           
 

 GradGradGradGradGradGradGradGradGradGradGradGradGradGradGradGradGradGrad
 Berny optimization.
 Initialization pass.
                           ----------------------------
                           !    Initial Parameters    !
                           ! (Angstroms and Degrees)  !
 --------------------------                            --------------------------
 ! Name  Definition              Value          Derivative Info.                !
 --------------------------------------------------------------------------------
 ! R1    R(1,2)                  1.3536         estimate D2E/DX2                !
 ! R2    R(1,5)                  1.0806         estimate D2E/DX2                !
 ! R3    R(1,9)                  1.519          estimate D2E/DX2                !
 ! R4    R(1,12)                 2.1            Frozen                          !
 ! R5    R(2,3)                  1.4713         estimate D2E/DX2                !
 ! R6    R(2,6)                  1.0813         estimate D2E/DX2                !
 ! R7    R(3,4)                  1.3536         estimate D2E/DX2                !
 ! R8    R(3,7)                  1.0813         estimate D2E/DX2                !
 ! R9    R(4,8)                  1.0806         estimate D2E/DX2                !
 ! R10   R(4,9)                  1.5188         estimate D2E/DX2                !
 ! R11   R(4,15)                 2.1            Frozen                          !
 ! R12   R(9,10)                 1.1024         estimate D2E/DX2                !
 ! R13   R(9,11)                 1.0917         estimate D2E/DX2                !
 ! R14   R(12,13)                1.2819         estimate D2E/DX2                !
 ! R15   R(12,14)                1.303          estimate D2E/DX2                !
 ! R16   R(12,15)                1.618          estimate D2E/DX2                !
 ! R17   R(15,16)                1.3013         estimate D2E/DX2                !
 ! R18   R(15,17)                1.2848         estimate D2E/DX2                !
 ! A1    A(2,1,5)              127.0035         estimate D2E/DX2                !
 ! A2    A(2,1,9)              109.191          estimate D2E/DX2                !
 ! A3    A(2,1,12)              90.816          estimate D2E/DX2                !
 ! A4    A(5,1,9)              123.5619         estimate D2E/DX2                !
 ! A5    A(5,1,12)              99.1894         estimate D2E/DX2                !
 ! A6    A(9,1,12)              83.4866         estimate D2E/DX2                !
 ! A7    A(1,2,3)              109.3362         estimate D2E/DX2                !
 ! A8    A(1,2,6)              126.362          estimate D2E/DX2                !
 ! A9    A(3,2,6)              124.281          estimate D2E/DX2                !
 ! A10   A(2,3,4)              109.3381         estimate D2E/DX2                !
 ! A11   A(2,3,7)              124.2827         estimate D2E/DX2                !
 ! A12   A(4,3,7)              126.358          estimate D2E/DX2                !
 ! A13   A(3,4,8)              126.9922         estimate D2E/DX2                !
 ! A14   A(3,4,9)              109.1931         estimate D2E/DX2                !
 ! A15   A(3,4,15)              90.7143         estimate D2E/DX2                !
 ! A16   A(8,4,9)              123.5673         estimate D2E/DX2                !
 ! A17   A(8,4,15)              99.2262         estimate D2E/DX2                !
 ! A18   A(9,4,15)              83.5936         estimate D2E/DX2                !
 ! A19   A(1,9,4)              102.4141         estimate D2E/DX2                !
 ! A20   A(1,9,10)             109.4285         estimate D2E/DX2                !
 ! A21   A(1,9,11)             113.5958         estimate D2E/DX2                !
 ! A22   A(4,9,10)             109.4265         estimate D2E/DX2                !
 ! A23   A(4,9,11)             113.6469         estimate D2E/DX2                !
 ! A24   A(10,9,11)            108.1745         estimate D2E/DX2                !
 ! A25   A(1,12,13)            122.7423         estimate D2E/DX2                !
 ! A26   A(1,12,14)            123.7606         estimate D2E/DX2                !
 ! A27   A(1,12,15)            100.3033         estimate D2E/DX2                !
 ! A28   A(13,12,14)            90.7471         estimate D2E/DX2                !
 ! A29   A(13,12,15)           109.6599         estimate D2E/DX2                !
 ! A30   A(14,12,15)           109.3609         estimate D2E/DX2                !
 ! A31   A(4,15,12)            100.2608         estimate D2E/DX2                !
 ! A32   A(4,15,16)            123.6655         estimate D2E/DX2                !
 ! A33   A(4,15,17)            122.9042         estimate D2E/DX2                !
 ! A34   A(12,15,16)           109.5996         estimate D2E/DX2                !
 ! A35   A(12,15,17)           109.4562         estimate D2E/DX2                !
 ! A36   A(16,15,17)            90.6921         estimate D2E/DX2                !
 ! D1    D(5,1,2,3)            179.0338         estimate D2E/DX2                !
 ! D2    D(5,1,2,6)             -2.5772         estimate D2E/DX2                !
 ! D3    D(9,1,2,3)              4.5857         estimate D2E/DX2                !
 ! D4    D(9,1,2,6)           -177.0253         estimate D2E/DX2                !
 ! D5    D(12,1,2,3)           -78.8012         estimate D2E/DX2                !
 ! D6    D(12,1,2,6)            99.5878         estimate D2E/DX2                !
 ! D7    D(2,1,9,4)             -6.9373         estimate D2E/DX2                !
 ! D8    D(2,1,9,10)           109.0877         estimate D2E/DX2                !
 ! D9    D(2,1,9,11)          -129.9156         estimate D2E/DX2                !
 ! D10   D(5,1,9,4)            178.3828         estimate D2E/DX2                !
 ! D11   D(5,1,9,10)           -65.5922         estimate D2E/DX2                !
 ! D12   D(5,1,9,11)            55.4045         estimate D2E/DX2                !
 ! D13   D(12,1,9,4)            81.6553         estimate D2E/DX2                !
 ! D14   D(12,1,9,10)         -162.3197         estimate D2E/DX2                !
 ! D15   D(12,1,9,11)          -41.323          estimate D2E/DX2                !
 ! D16   D(2,1,12,13)          -51.5635         estimate D2E/DX2                !
 ! D17   D(2,1,12,14)         -168.2097         estimate D2E/DX2                !
 ! D18   D(2,1,12,15)           69.9999         estimate D2E/DX2                !
 ! D19   D(5,1,12,13)           76.1747         estimate D2E/DX2                !
 ! D20   D(5,1,12,14)          -40.4714         estimate D2E/DX2                !
 ! D21   D(5,1,12,15)         -162.2619         estimate D2E/DX2                !
 ! D22   D(9,1,12,13)         -160.7874         estimate D2E/DX2                !
 ! D23   D(9,1,12,14)           82.5664         estimate D2E/DX2                !
 ! D24   D(9,1,12,15)          -39.224          estimate D2E/DX2                !
 ! D25   D(1,2,3,4)              0.024          estimate D2E/DX2                !
 ! D26   D(1,2,3,7)            178.4371         estimate D2E/DX2                !
 ! D27   D(6,2,3,4)           -178.4059         estimate D2E/DX2                !
 ! D28   D(6,2,3,7)              0.0072         estimate D2E/DX2                !
 ! D29   D(2,3,4,8)           -179.0282         estimate D2E/DX2                !
 ! D30   D(2,3,4,9)             -4.6237         estimate D2E/DX2                !
 ! D31   D(2,3,4,15)            78.841          estimate D2E/DX2                !
 ! D32   D(7,3,4,8)              2.6            estimate D2E/DX2                !
 ! D33   D(7,3,4,9)            177.0045         estimate D2E/DX2                !
 ! D34   D(7,3,4,15)           -99.5308         estimate D2E/DX2                !
 ! D35   D(3,4,9,1)              6.9522         estimate D2E/DX2                !
 ! D36   D(3,4,9,10)          -109.0743         estimate D2E/DX2                !
 ! D37   D(3,4,9,11)           129.8961         estimate D2E/DX2                !
 ! D38   D(8,4,9,1)           -178.4109         estimate D2E/DX2                !
 ! D39   D(8,4,9,10)            65.5627         estimate D2E/DX2                !
 ! D40   D(8,4,9,11)           -55.4669         estimate D2E/DX2                !
 ! D41   D(15,4,9,1)           -81.5694         estimate D2E/DX2                !
 ! D42   D(15,4,9,10)          162.4042         estimate D2E/DX2                !
 ! D43   D(15,4,9,11)           41.3746         estimate D2E/DX2                !
 ! D44   D(3,4,15,12)          -70.3701         estimate D2E/DX2                !
 ! D45   D(3,4,15,16)          167.6135         estimate D2E/DX2                !
 ! D46   D(3,4,15,17)           50.9826         estimate D2E/DX2                !
 ! D47   D(8,4,15,12)          161.9199         estimate D2E/DX2                !
 ! D48   D(8,4,15,16)           39.9035         estimate D2E/DX2                !
 ! D49   D(8,4,15,17)          -76.7274         estimate D2E/DX2                !
 ! D50   D(9,4,15,12)           38.8649         estimate D2E/DX2                !
 ! D51   D(9,4,15,16)          -83.1515         estimate D2E/DX2                !
 ! D52   D(9,4,15,17)          160.2176         estimate D2E/DX2                !
 ! D53   D(1,12,15,4)            0.1974         estimate D2E/DX2                !
 ! D54   D(1,12,15,16)         131.6852         estimate D2E/DX2                !
 ! D55   D(1,12,15,17)        -130.3025         estimate D2E/DX2                !
 ! D56   D(13,12,15,4)         130.6412         estimate D2E/DX2                !
 ! D57   D(13,12,15,16)        -97.871          estimate D2E/DX2                !
 ! D58   D(13,12,15,17)          0.1413         estimate D2E/DX2                !
 ! D59   D(14,12,15,4)        -131.2986         estimate D2E/DX2                !
 ! D60   D(14,12,15,16)          0.1892         estimate D2E/DX2                !
 ! D61   D(14,12,15,17)         98.2015         estimate D2E/DX2                !
 --------------------------------------------------------------------------------
 Trust Radius=3.00D-01 FncErr=1.00D-07 GrdErr=1.00D-06 EigMax=2.50D+02 EigMin=1.00D-04
 Number of steps in this run=    102 maximum allowed number of steps=    102.
 GradGradGradGradGradGradGradGradGradGradGradGradGradGradGradGradGradGrad

                          Input orientation:                          
 ---------------------------------------------------------------------
 Center     Atomic      Atomic             Coordinates (Angstroms)
 Number     Number       Type             X           Y           Z
 ---------------------------------------------------------------------
      1          6           0       -0.793692    1.185372   -0.335690
      2          6           0       -1.119238    0.731433    0.897277
      3          6           0       -1.119089   -0.739821    0.890465
      4          6           0       -0.792932   -1.182308   -0.346523
      5          1           0       -0.724258    2.216348   -0.651778
      6          1           0       -1.323294    1.336406    1.769924
      7          1           0       -1.323127   -1.352915    1.757429
      8          1           0       -0.723300   -2.210380   -0.671910
      9          6           0       -0.663676    0.005770   -1.283827
     10          1           0       -1.509459    0.008682   -1.990906
     11          1           0        0.262871    0.009247   -1.861203
     12          6           0        1.239717    0.808978    0.029792
     13          1           0        1.847686    1.238528    1.073403
     14          1           0        2.204501    1.242055   -0.731379
     15          6           0        1.239553   -0.809039    0.027210
     16          1           0        2.204064   -1.244430   -0.730043
     17          1           0        1.846983   -1.238710    1.074604
 ---------------------------------------------------------------------
                    Distance matrix (angstroms):
                    1          2          3          4          5
     1  C    0.000000
     2  C    1.353606   0.000000
     3  C    2.305582   1.471270   0.000000
     4  C    2.367705   2.305628   1.353629   0.000000
     5  H    1.080576   2.181869   3.357580   3.413028   0.000000
     6  H    2.176442   1.081270   2.264038   3.332349   2.645332
     7  H    3.332319   2.264054   1.081269   2.176425   4.347708
     8  H    3.413082   3.357585   2.181790   1.080582   4.426774
     9  C    1.518989   2.343360   2.343257   1.518807   2.299959
    10  H    2.153291   3.002706   3.002490   2.153106   2.698813
    11  H    2.196995   3.168752   3.169005   2.197448   2.703410
    12  C    2.100000   2.514599   2.950169   2.870278   2.510463
    13  H    2.994202   3.015096   3.570586   3.853505   3.247657
    14  H    3.024722   3.736375   4.195767   3.874307   3.087590
    15  C    2.871142   2.948553   2.512607   2.100000   3.670224
    16  H    3.878916   4.194823   3.731491   3.022074   4.534113
    17  H    3.852047   3.565302   3.013367   2.998655   4.639946
                    6          7          8          9         10
     6  H    0.000000
     7  H    2.689350   0.000000
     8  H    4.347670   2.645133   0.000000
     9  C    3.395745   3.395606   2.299852   0.000000
    10  H    3.992662   3.992328   2.698524   1.102415   0.000000
    11  H    4.178798   4.179159   2.704384   1.091725   1.777070
    12  C    3.142493   3.771827   3.669107   2.448192   3.504520
    13  H    3.248051   4.151810   4.642311   3.658301   4.708814
    14  H    4.325593   5.037082   4.527125   3.171756   4.111097
    15  C    3.769373   3.139552   2.511039   2.450512   3.506925
    16  H    5.035157   4.317449   3.083164   3.177044   4.117076
    17  H    4.143109   3.244825   3.255888   3.662559   4.713708
                   11         12         13         14         15
    11  H    0.000000
    12  C    2.273689   0.000000
    13  H    3.554530   1.281898   0.000000
    14  H    2.562469   1.302976   1.839719   0.000000
    15  C    2.278070   1.618019   2.378419   2.390307   0.000000
    16  H    2.572831   2.392447   3.089418   2.486485   1.301261
    17  H    3.561709   2.377694   2.477238   3.089270   1.284766
                   16         17
    16  H    0.000000
    17  H    1.839644   0.000000
 Stoichiometry    C7H10
 Framework group  C1[X(C7H10)]
 Deg. of freedom    45
 Full point group                 C1      NOp   1
 Largest Abelian subgroup         C1      NOp   1
 Largest concise Abelian subgroup C1      NOp   1
                         Standard orientation:                         
 ---------------------------------------------------------------------
 Center     Atomic      Atomic             Coordinates (Angstroms)
 Number     Number       Type             X           Y           Z
 ---------------------------------------------------------------------
      1          6           0       -0.563980   -1.185122    0.390272
      2          6           0       -1.063970   -0.733278   -0.783651
      3          6           0       -1.064016    0.737984   -0.779058
      4          6           0       -0.563556    1.182572    0.397460
      5          1           0       -0.448949   -2.215567    0.694565
      6          1           0       -1.391027   -1.339718   -1.616963
      7          1           0       -1.391208    1.349619   -1.608510
      8          1           0       -0.448633    2.211186    0.707948
      9          6           0       -0.299784   -0.003980    1.308115
     10          1           0       -1.034980   -0.006290    2.129576
     11          1           0        0.700224   -0.006026    1.746115
     12          6           0        1.395346   -0.808112   -0.264638
     13          1           0        1.847109   -1.238921   -1.384270
     14          1           0        2.459991   -1.239451    0.350361
     15          6           0        1.394265    0.809907   -0.264398
     16          1           0        2.457384    1.247028    0.345506
     17          1           0        1.844266    1.238311   -1.388939
 ---------------------------------------------------------------------
 Rotational constants (GHZ):           3.5934420           3.0469346           2.6691087
 Standard basis: 3-21G (6D, 7F)
 There are    83 symmetry adapted cartesian basis functions of A   symmetry.
 There are    83 symmetry adapted basis functions of A   symmetry.
    83 basis functions,   135 primitive gaussians,    83 cartesian basis functions
    26 alpha electrons       26 beta electrons
       nuclear repulsion energy       293.5701019500 Hartrees.
 NAtoms=   17 NActive=   17 NUniq=   17 SFac= 1.00D+00 NAtFMM=   60 NAOKFM=F Big=F
 Integral buffers will be    131072 words long.
 Raffenetti 2 integral format.
 Two-electron integral symmetry is turned on.
 One-electron integrals computed using PRISM.
 NBasis=    83 RedAO= T EigKep=  4.30D-03  NBF=    83
 NBsUse=    83 1.00D-06 EigRej= -1.00D+00 NBFU=    83
 ExpMin= 1.83D-01 ExpMax= 1.72D+02 ExpMxC= 1.72D+02 IAcc=3 IRadAn=         5 AccDes= 0.00D+00
 Harris functional with IExCor=  402 and IRadAn=       5 diagonalized for initial guess.
 HarFok:  IExCor=  402 AccDes= 0.00D+00 IRadAn=         5 IDoV= 1 UseB2=F ITyADJ=14
 ICtDFT=  3500011 ScaDFX=  1.000000  1.000000  1.000000  1.000000
 FoFCou: FMM=F IPFlag=           0 FMFlag=      100000 FMFlg1=           0
         NFxFlg=           0 DoJE=T BraDBF=F KetDBF=T FulRan=T
         wScrn=  0.000000 ICntrl=       500 IOpCl=  0 I1Cent=   200000004 NGrid=           0
         NMat0=    1 NMatS0=      1 NMatT0=    0 NMatD0=    1 NMtDS0=    0 NMtDT0=    0
 Petite list used in FoFCou.
 Keep R1 ints in memory in canonical form, NReq=7891700.
 Requested convergence on RMS density matrix=1.00D-08 within 128 cycles.
 Requested convergence on MAX density matrix=1.00D-06.
 Requested convergence on             energy=1.00D-06.
 No special actions if energy rises.
 Integral accuracy reduced to 1.0D-05 until final iterations.
 Initial convergence to 1.0D-05 achieved.  Increase integral accuracy.
 SCF Done:  E(RB3LYP) =  -271.016619591     A.U. after   15 cycles
            NFock= 15  Conv=0.62D-08     -V/T= 2.0115

 **********************************************************************

            Population analysis using the SCF Density.

 **********************************************************************

 Orbital symmetries:
       Occupied  (A) (A) (A) (A) (A) (A) (A) (A) (A) (A) (A) (A)
                 (A) (A) (A) (A) (A) (A) (A) (A) (A) (A) (A) (A)
                 (A) (A)
       Virtual   (A) (A) (A) (A) (A) (A) (A) (A) (A) (A) (A) (A)
                 (A) (A) (A) (A) (A) (A) (A) (A) (A) (A) (A) (A)
                 (A) (A) (A) (A) (A) (A) (A) (A) (A) (A) (A) (A)
                 (A) (A) (A) (A) (A) (A) (A) (A) (A) (A) (A) (A)
                 (A) (A) (A) (A) (A) (A) (A) (A) (A)
 The electronic state is 1-A.
 Alpha  occ. eigenvalues --  -10.15124 -10.15066 -10.14831 -10.14761 -10.12923
 Alpha  occ. eigenvalues --  -10.12824 -10.12711  -0.88163  -0.73110  -0.71305
 Alpha  occ. eigenvalues --   -0.67277  -0.56191  -0.54451  -0.52684  -0.51287
 Alpha  occ. eigenvalues --   -0.45733  -0.41693  -0.38802  -0.37399  -0.37035
 Alpha  occ. eigenvalues --   -0.36581  -0.33411  -0.30072  -0.27833  -0.26320
 Alpha  occ. eigenvalues --   -0.18487
 Alpha virt. eigenvalues --   -0.02823   0.01334   0.09273   0.09746   0.10250
 Alpha virt. eigenvalues --    0.13237   0.16846   0.18393   0.18403   0.18745
 Alpha virt. eigenvalues --    0.18920   0.19438   0.20971   0.21000   0.24758
 Alpha virt. eigenvalues --    0.24948   0.36991   0.39438   0.46027   0.67410
 Alpha virt. eigenvalues --    0.67953   0.71743   0.72059   0.74297   0.74996
 Alpha virt. eigenvalues --    0.75145   0.79612   0.80926   0.81891   0.84677
 Alpha virt. eigenvalues --    0.88216   0.88996   0.92995   0.94506   0.95480
 Alpha virt. eigenvalues --    0.96437   0.98573   1.00869   1.02108   1.04155
 Alpha virt. eigenvalues --    1.05111   1.05865   1.08322   1.11520   1.13568
 Alpha virt. eigenvalues --    1.15864   1.24295   1.33515   1.35924   1.42925
 Alpha virt. eigenvalues --    1.43942   1.80932   1.87301   1.91929   2.15971
 Alpha virt. eigenvalues --    2.20669   2.36183
          Condensed to atoms (all electrons):
               1          2          3          4          5          6
     1  C    5.371855   0.371004  -0.104167  -0.116489   0.395685  -0.040233
     2  C    0.371004   5.226844   0.499425  -0.104192  -0.033841   0.392566
     3  C   -0.104167   0.499425   5.226955   0.370848   0.003900  -0.028413
     4  C   -0.116489  -0.104192   0.370848   5.372302   0.002793   0.003407
     5  H    0.395685  -0.033841   0.003900   0.002793   0.462723  -0.002005
     6  H   -0.040233   0.392566  -0.028413   0.003407  -0.002005   0.485782
     7  H    0.003407  -0.028384   0.392543  -0.040240  -0.000043  -0.000938
     8  H    0.002795   0.003898  -0.033826   0.395654  -0.000022  -0.000043
     9  C    0.309634  -0.124904  -0.124963   0.309480  -0.026265   0.004425
    10  H   -0.042002   0.003701   0.003689  -0.041951  -0.001202  -0.000107
    11  H   -0.034731   0.004168   0.004169  -0.034633  -0.000234  -0.000066
    12  C    0.135714  -0.066200  -0.025305  -0.031008  -0.010406  -0.000570
    13  H   -0.006953  -0.002051   0.000419   0.000787   0.000026   0.000161
    14  H   -0.003267   0.000869   0.000455   0.001009   0.000200  -0.000001
    15  C   -0.030932  -0.025441  -0.066587   0.135747   0.000155  -0.000101
    16  H    0.001004   0.000456   0.000870  -0.003333   0.000000   0.000001
    17  H    0.000781   0.000411  -0.002048  -0.006873  -0.000001   0.000005
               7          8          9         10         11         12
     1  C    0.003407   0.002795   0.309634  -0.042002  -0.034731   0.135714
     2  C   -0.028384   0.003898  -0.124904   0.003701   0.004168  -0.066200
     3  C    0.392543  -0.033826  -0.124963   0.003689   0.004169  -0.025305
     4  C   -0.040240   0.395654   0.309480  -0.041951  -0.034633  -0.031008
     5  H   -0.000043  -0.000022  -0.026265  -0.001202  -0.000234  -0.010406
     6  H   -0.000938  -0.000043   0.004425  -0.000107  -0.000066  -0.000570
     7  H    0.485666  -0.002004   0.004425  -0.000107  -0.000065  -0.000102
     8  H   -0.002004   0.462706  -0.026275  -0.001203  -0.000236   0.000154
     9  C    0.004425  -0.026275   5.468728   0.340893   0.388532  -0.071386
    10  H   -0.000107  -0.001203   0.340893   0.553962  -0.026022   0.005141
    11  H   -0.000065  -0.000236   0.388532  -0.026022   0.480438  -0.016811
    12  C   -0.000102   0.000154  -0.071386   0.005141  -0.016811   5.516088
    13  H    0.000004  -0.000001   0.001278  -0.000027   0.000325   0.335162
    14  H    0.000001   0.000000  -0.001704  -0.000029   0.001199   0.319423
    15  C   -0.000578  -0.010392  -0.070818   0.005101  -0.016767   0.308064
    16  H   -0.000001   0.000203  -0.001615  -0.000029   0.001147  -0.031232
    17  H    0.000163   0.000025   0.001262  -0.000027   0.000324  -0.032403
              13         14         15         16         17
     1  C   -0.006953  -0.003267  -0.030932   0.001004   0.000781
     2  C   -0.002051   0.000869  -0.025441   0.000456   0.000411
     3  C    0.000419   0.000455  -0.066587   0.000870  -0.002048
     4  C    0.000787   0.001009   0.135747  -0.003333  -0.006873
     5  H    0.000026   0.000200   0.000155   0.000000  -0.000001
     6  H    0.000161  -0.000001  -0.000101   0.000001   0.000005
     7  H    0.000004   0.000001  -0.000578  -0.000001   0.000163
     8  H   -0.000001   0.000000  -0.010392   0.000203   0.000025
     9  C    0.001278  -0.001704  -0.070818  -0.001615   0.001262
    10  H   -0.000027  -0.000029   0.005101  -0.000029  -0.000027
    11  H    0.000325   0.001199  -0.016767   0.001147   0.000324
    12  C    0.335162   0.319423   0.308064  -0.031232  -0.032403
    13  H    0.634629  -0.051156  -0.032214   0.003305  -0.005467
    14  H   -0.051156   0.650289  -0.031490  -0.003693   0.003335
    15  C   -0.032214  -0.031490   5.515727   0.319599   0.334778
    16  H    0.003305  -0.003693   0.319599   0.648839  -0.051186
    17  H   -0.005467   0.003335   0.334778  -0.051186   0.636286
 Mulliken charges:
               1
     1  C   -0.213104
     2  C   -0.118330
     3  C   -0.117965
     4  C   -0.213307
     5  H    0.208539
     6  H    0.186130
     7  H    0.186254
     8  H    0.208568
     9  C   -0.380727
    10  H    0.200218
    11  H    0.249265
    12  C   -0.334323
    13  H    0.121773
    14  H    0.114560
    15  C   -0.333851
    16  H    0.115665
    17  H    0.120635
 Sum of Mulliken charges =   0.00000
 Mulliken charges with hydrogens summed into heavy atoms:
               1
     1  C   -0.004565
     2  C    0.067801
     3  C    0.068289
     4  C   -0.004739
     9  C    0.068756
    12  C   -0.097990
    15  C   -0.097551
 Electronic spatial extent (au):  <R**2>=            650.2040
 Charge=              0.0000 electrons
 Dipole moment (field-independent basis, Debye):
    X=             -0.7394    Y=              0.0037    Z=              0.3900  Tot=              0.8359
 Quadrupole moment (field-independent basis, Debye-Ang):
   XX=            -45.6992   YY=            -42.2115   ZZ=            -42.5536
   XY=              0.0011   XZ=              0.9497   YZ=              0.0129
 Traceless Quadrupole moment (field-independent basis, Debye-Ang):
   XX=             -2.2111   YY=              1.2766   ZZ=              0.9345
   XY=              0.0011   XZ=              0.9497   YZ=              0.0129
 Octapole moment (field-independent basis, Debye-Ang**2):
  XXX=              4.2452  YYY=             -0.0035  ZZZ=             -0.2516  XYY=             -5.8230
  XXY=              0.0372  XXZ=             -1.8200  XZZ=             -4.2188  YZZ=             -0.0023
  YYZ=              0.8421  XYZ=              0.0156
 Hexadecapole moment (field-independent basis, Debye-Ang**3):
 XXXX=           -391.1047 YYYY=           -275.5304 ZZZZ=           -221.6833 XXXY=              0.0462
 XXXZ=              2.3960 YYYX=             -0.0080 YYYZ=              0.0769 ZZZX=              5.5256
 ZZZY=              0.0491 XXYY=           -111.6981 XXZZ=            -95.5474 YYZZ=            -81.3785
 XXYZ=              0.0082 YYXZ=              2.8778 ZZXY=             -0.0174
 N-N= 2.935701019500D+02 E-N=-1.213374432570D+03  KE= 2.679252470245D+02
 Calling FoFJK, ICntrl=      2127 FMM=F ISym2X=0 I1Cent= 0 IOpClX= 0 NMat=1 NMatS=1 NMatT=0.
 ***** Axes restored to original set *****
 -------------------------------------------------------------------
 Center     Atomic                   Forces (Hartrees/Bohr)
 Number     Number              X              Y              Z
 -------------------------------------------------------------------
      1        6           0.087483779    0.010772714   -0.033497442
      2        6          -0.040782608   -0.072410764    0.054977943
      3        6          -0.040812613    0.071975392    0.055653906
      4        6           0.087375561   -0.010522400   -0.033398215
      5        1          -0.008316242   -0.000813213   -0.002141710
      6        1           0.002121788   -0.001120749   -0.000176103
      7        1           0.002138699    0.001116023   -0.000165114
      8        1          -0.008295285    0.000826048   -0.002129044
      9        6          -0.040206330    0.000176464   -0.037540498
     10        1          -0.004195148   -0.000029859   -0.001486554
     11        1          -0.008651879   -0.000074080   -0.002827837
     12        6           0.106521803   -0.003825836    0.024019373
     13        1          -0.054246567   -0.021386869   -0.041843540
     14        1          -0.066123615   -0.023944433    0.019065087
     15        6           0.106411032    0.003713633    0.025154239
     16        1          -0.065963475    0.024331395    0.018678027
     17        1          -0.054458900    0.021216533   -0.042342518
 -------------------------------------------------------------------
 Cartesian Forces:  Max     0.106521803 RMS     0.041012355

 GradGradGradGradGradGradGradGradGradGradGradGradGradGradGradGradGradGrad
 Berny optimization.
 FormGI is forming the generalized inverse of G from B-inverse, IUseBI=4.
 Internal  Forces:  Max     0.068056834 RMS     0.018139950
 Search for a local minimum.
 Step number   1 out of a maximum of  102
 All quantities printed in internal units (Hartrees-Bohrs-Radians)
 Mixed Optimization -- RFO/linear search
 Second derivative matrix not updated -- first step.
 ITU=  0
     Eigenvalues ---    0.00420   0.01420   0.01916   0.01943   0.02326
     Eigenvalues ---    0.02453   0.02867   0.03179   0.03552   0.04088
     Eigenvalues ---    0.04494   0.05315   0.05734   0.05820   0.06746
     Eigenvalues ---    0.07227   0.07411   0.07422   0.07783   0.08373
     Eigenvalues ---    0.10032   0.11694   0.14536   0.15055   0.15991
     Eigenvalues ---    0.15992   0.16597   0.18452   0.18537   0.19385
     Eigenvalues ---    0.19537   0.21172   0.25507   0.27270   0.32953
     Eigenvalues ---    0.33416   0.34614   0.35841   0.35841   0.35924
     Eigenvalues ---    0.35925   0.45836   0.531341000.000001000.00000
     Eigenvalues --- 1000.000001000.000001000.000001000.000001000.00000
     Eigenvalues --- 1000.000001000.000001000.000001000.000001000.00000
     Eigenvalues --- 1000.000001000.000001000.000001000.000001000.00000
     Eigenvalues --- 1000.000001000.000001000.000001000.000001000.00000
     Eigenvalues --- 1000.000001000.000001000.000001000.000001000.00000
     Eigenvalues --- 1000.000001000.000001000.000001000.000001000.00000
     Eigenvalues --- 1000.000001000.000001000.000001000.000001000.00000
     Eigenvalues --- 1000.000001000.000001000.000001000.000001000.00000
     Eigenvalues --- 1000.000001000.000001000.000001000.000001000.00000
     Eigenvalues --- 1000.000001000.000001000.000001000.000001000.00000
     Eigenvalues --- 1000.000001000.000001000.000001000.000001000.00000
     Eigenvalues --- 1000.000001000.000001000.000001000.000001000.00000
     Eigenvalues --- 1000.000001000.000001000.000001000.000001000.00000
     Eigenvalues --- 1000.000001000.000001000.000001000.000001000.00000
 RFO step:  Lambda=-1.16075958D-01 EMin= 4.19653197D-03
 Linear search not attempted -- first point.
 Maximum step size (   0.300) exceeded in Quadratic search.
    -- Step size scaled by   0.549
 Iteration  1 RMS(Cart)=  0.02818293 RMS(Int)=  0.00084008
 Iteration  2 RMS(Cart)=  0.00079514 RMS(Int)=  0.00022227
 Iteration  3 RMS(Cart)=  0.00000068 RMS(Int)=  0.00022227
 Iteration  1 RMS(Cart)=  0.00001288 RMS(Int)=  0.00000084
 Iteration  2 RMS(Cart)=  0.00000011 RMS(Int)=  0.00000085
 Variable       Old X    -DE/DX   Delta X   Delta X   Delta X     New X
                                 (Linear)    (Quad)   (Total)
    R1        2.55794   0.06444   0.00000   0.05390   0.05392   2.61187
    R2        2.04199  -0.00068   0.00000  -0.00079  -0.00079   2.04120
    R3        2.87047   0.00313   0.00000   0.00684   0.00708   2.87755
    R4        3.96842  -0.01232   0.00000   0.00000  -0.00000   3.96842
    R5        2.78030  -0.05876   0.00000  -0.06743  -0.06735   2.71294
    R6        2.04330  -0.00117   0.00000  -0.00135  -0.00135   2.04195
    R7        2.55799   0.06443   0.00000   0.05390   0.05393   2.61191
    R8        2.04330  -0.00117   0.00000  -0.00135  -0.00135   2.04195
    R9        2.04200  -0.00068   0.00000  -0.00078  -0.00078   2.04122
   R10        2.87013   0.00310   0.00000   0.00676   0.00700   2.87713
   R11        3.96842  -0.01236   0.00000   0.00000   0.00000   3.96842
   R12        2.08326   0.00417   0.00000   0.00508   0.00508   2.08835
   R13        2.06306  -0.00585   0.00000  -0.00694  -0.00694   2.05612
   R14        2.42244  -0.06696   0.00000  -0.11798  -0.11798   2.30446
   R15        2.46227  -0.06806   0.00000  -0.12424  -0.12424   2.33802
   R16        3.05761  -0.04416   0.00000  -0.07643  -0.07682   2.98079
   R17        2.45903  -0.06790   0.00000  -0.12361  -0.12361   2.33541
   R18        2.42786  -0.06736   0.00000  -0.11927  -0.11927   2.30858
    A1        2.21663  -0.00266   0.00000  -0.00539  -0.00557   2.21106
    A2        1.90574   0.00694   0.00000   0.01148   0.01075   1.91649
    A3        1.58504   0.00339   0.00000   0.01356   0.01334   1.59838
    A4        2.15656  -0.00543   0.00000  -0.01050  -0.01074   2.14582
    A5        1.73118   0.00319   0.00000   0.00742   0.00737   1.73856
    A6        1.45712   0.00575   0.00000   0.02568   0.02606   1.48318
    A7        1.90828  -0.00102   0.00000  -0.00183  -0.00203   1.90625
    A8        2.20543   0.00105   0.00000   0.00186   0.00191   2.20735
    A9        2.16911  -0.00014   0.00000  -0.00040  -0.00035   2.16877
   A10        1.90831  -0.00108   0.00000  -0.00189  -0.00209   1.90622
   A11        2.16914  -0.00011   0.00000  -0.00035  -0.00030   2.16884
   A12        2.20536   0.00106   0.00000   0.00188   0.00193   2.20729
   A13        2.21643  -0.00261   0.00000  -0.00526  -0.00545   2.21098
   A14        1.90578   0.00699   0.00000   0.01153   0.01080   1.91658
   A15        1.58326   0.00340   0.00000   0.01357   0.01335   1.59661
   A16        2.15666  -0.00553   0.00000  -0.01070  -0.01094   2.14571
   A17        1.73182   0.00323   0.00000   0.00749   0.00744   1.73926
   A18        1.45898   0.00567   0.00000   0.02549   0.02587   1.48486
   A19        1.78746  -0.01447   0.00000  -0.02854  -0.02902   1.75845
   A20        1.90989   0.00963   0.00000   0.02232   0.02242   1.93231
   A21        1.98262   0.00017   0.00000  -0.00380  -0.00381   1.97881
   A22        1.90985   0.00959   0.00000   0.02222   0.02231   1.93217
   A23        1.98351   0.00008   0.00000  -0.00405  -0.00406   1.97946
   A24        1.88800  -0.00418   0.00000  -0.00620  -0.00626   1.88174
   A25        2.14226  -0.01261   0.00000  -0.03478  -0.03477   2.10749
   A26        2.16003  -0.01190   0.00000  -0.03270  -0.03267   2.12736
   A27        1.75062   0.00344   0.00000   0.00445   0.00436   1.75498
   A28        1.58384   0.01729   0.00000   0.05106   0.05065   1.63449
   A29        1.91393   0.00191   0.00000   0.00886   0.00887   1.92279
   A30        1.90871   0.00361   0.00000   0.00888   0.00865   1.91735
   A31        1.74988   0.00358   0.00000   0.00470   0.00461   1.75449
   A32        2.15837  -0.01181   0.00000  -0.03238  -0.03235   2.12602
   A33        2.14508  -0.01283   0.00000  -0.03540  -0.03539   2.10969
   A34        1.91287   0.00342   0.00000   0.00834   0.00811   1.92098
   A35        1.91037   0.00200   0.00000   0.00927   0.00928   1.91965
   A36        1.58288   0.01736   0.00000   0.05121   0.05080   1.63367
    D1        3.12473  -0.00135   0.00000  -0.00939  -0.00922   3.11551
    D2       -0.04498  -0.00612   0.00000  -0.02352  -0.02345  -0.06843
    D3        0.08004   0.01193   0.00000   0.04118   0.04157   0.12160
    D4       -3.08967   0.00716   0.00000   0.02704   0.02733  -3.06234
    D5       -1.37534   0.00484   0.00000   0.00955   0.00935  -1.36599
    D6        1.73814   0.00006   0.00000  -0.00459  -0.00488   1.73325
    D7       -0.12108  -0.01698   0.00000  -0.06014  -0.05981  -0.18089
    D8        1.90394  -0.00927   0.00000  -0.03978  -0.03993   1.86401
    D9       -2.26745  -0.00757   0.00000  -0.03418  -0.03429  -2.30174
   D10        3.11337  -0.00441   0.00000  -0.01197  -0.01158   3.10179
   D11       -1.14480   0.00331   0.00000   0.00839   0.00831  -1.13649
   D12        0.96699   0.00501   0.00000   0.01399   0.01394   0.98093
   D13        1.42515  -0.01220   0.00000  -0.03807  -0.03746   1.38769
   D14       -2.83301  -0.00449   0.00000  -0.01771  -0.01757  -2.85059
   D15       -0.72122  -0.00279   0.00000  -0.01212  -0.01194  -0.73316
   D16       -0.89995   0.00227   0.00000   0.00438   0.00437  -0.89559
   D17       -2.93581   0.00066   0.00000  -0.00558  -0.00561  -2.94143
   D18        1.22173   0.00013   0.00000  -0.00109  -0.00093   1.22079
   D19        1.32950   0.00073   0.00000   0.00285   0.00280   1.33230
   D20       -0.70636  -0.00088   0.00000  -0.00710  -0.00718  -0.71354
   D21       -2.83200  -0.00140   0.00000  -0.00262  -0.00250  -2.83450
   D22       -2.80627  -0.00419   0.00000  -0.00497  -0.00475  -2.81102
   D23        1.44106  -0.00580   0.00000  -0.01493  -0.01473   1.42632
   D24       -0.68459  -0.00632   0.00000  -0.01044  -0.01005  -0.69464
   D25        0.00042  -0.00003   0.00000  -0.00009  -0.00009   0.00033
   D26        3.11432  -0.00465   0.00000  -0.01378  -0.01385   3.10046
   D27       -3.11377   0.00460   0.00000   0.01365   0.01372  -3.10005
   D28        0.00013  -0.00002   0.00000  -0.00005  -0.00005   0.00008
   D29       -3.12463   0.00136   0.00000   0.00940   0.00924  -3.11539
   D30       -0.08070  -0.01190   0.00000  -0.04107  -0.04146  -0.12215
   D31        1.37603  -0.00490   0.00000  -0.00965  -0.00945   1.36659
   D32        0.04538   0.00612   0.00000   0.02349   0.02343   0.06881
   D33        3.08931  -0.00714   0.00000  -0.02697  -0.02726   3.06205
   D34       -1.73714  -0.00014   0.00000   0.00445   0.00475  -1.73240
   D35        0.12134   0.01696   0.00000   0.06008   0.05976   0.18110
   D36       -1.90370   0.00922   0.00000   0.03965   0.03980  -1.86391
   D37        2.26711   0.00760   0.00000   0.03428   0.03439   2.30150
   D38       -3.11386   0.00442   0.00000   0.01202   0.01164  -3.10221
   D39        1.14429  -0.00332   0.00000  -0.00841  -0.00832   1.13596
   D40       -0.96808  -0.00494   0.00000  -0.01378  -0.01373  -0.98182
   D41       -1.42365   0.01220   0.00000   0.03807   0.03746  -1.38620
   D42        2.83449   0.00446   0.00000   0.01763   0.01749   2.85198
   D43        0.72212   0.00284   0.00000   0.01226   0.01208   0.73420
   D44       -1.22819  -0.00011   0.00000   0.00121   0.00105  -1.22714
   D45        2.92541  -0.00053   0.00000   0.00606   0.00610   2.93151
   D46        0.88981  -0.00211   0.00000  -0.00379  -0.00378   0.88603
   D47        2.82604   0.00137   0.00000   0.00261   0.00250   2.82854
   D48        0.69645   0.00096   0.00000   0.00747   0.00755   0.70400
   D49       -1.33915  -0.00062   0.00000  -0.00239  -0.00234  -1.34148
   D50        0.67832   0.00639   0.00000   0.01060   0.01021   0.68853
   D51       -1.45127   0.00597   0.00000   0.01546   0.01526  -1.43600
   D52        2.79632   0.00439   0.00000   0.00560   0.00538   2.80170
   D53        0.00345  -0.00004   0.00000  -0.00012  -0.00012   0.00332
   D54        2.29834  -0.01002   0.00000  -0.03130  -0.03148   2.26686
   D55       -2.27421   0.01193   0.00000   0.03410   0.03415  -2.24005
   D56        2.28012  -0.01190   0.00000  -0.03402  -0.03408   2.24604
   D57       -1.70817  -0.02187   0.00000  -0.06520  -0.06543  -1.77360
   D58        0.00247   0.00008   0.00000   0.00020   0.00020   0.00267
   D59       -2.29159   0.01001   0.00000   0.03126   0.03144  -2.26016
   D60        0.00330   0.00004   0.00000   0.00008   0.00008   0.00338
   D61        1.71394   0.02199   0.00000   0.06548   0.06571   1.77965
         Item               Value     Threshold  Converged?
 Maximum Force            0.068057     0.000450     NO 
 RMS     Force            0.018225     0.000300     NO 
 Maximum Displacement     0.077590     0.001800     NO 
 RMS     Displacement     0.028299     0.001200     NO 
 Predicted change in Energy=-5.360908D-02
 GradGradGradGradGradGradGradGradGradGradGradGradGradGradGradGradGradGrad

                          Input orientation:                          
 ---------------------------------------------------------------------
 Center     Atomic      Atomic             Coordinates (Angstroms)
 Number     Number       Type             X           Y           Z
 ---------------------------------------------------------------------
      1          6           0       -0.759937    1.174298   -0.336800
      2          6           0       -1.117316    0.713562    0.916322
      3          6           0       -1.117187   -0.722051    0.909786
      4          6           0       -0.759298   -1.171262   -0.347396
      5          1           0       -0.692952    2.205830   -0.650164
      6          1           0       -1.326355    1.317900    1.787341
      7          1           0       -1.326175   -1.334398    1.775206
      8          1           0       -0.692132   -2.199906   -0.670105
      9          6           0       -0.665335    0.005765   -1.308553
     10          1           0       -1.521155    0.008555   -2.007712
     11          1           0        0.247833    0.009063   -1.900136
     12          6           0        1.270315    0.788707    0.036562
     13          1           0        1.808878    1.207403    1.047373
     14          1           0        2.163442    1.210000   -0.708806
     15          6           0        1.270027   -0.788659    0.033993
     16          1           0        2.163341   -1.211600   -0.707916
     17          1           0        1.807316   -1.207993    1.047849
 ---------------------------------------------------------------------
                    Distance matrix (angstroms):
                    1          2          3          4          5
     1  C    0.000000
     2  C    1.382140   0.000000
     3  C    2.297334   1.435628   0.000000
     4  C    2.345584   2.297329   1.382166   0.000000
     5  H    1.080158   2.204728   3.344533   3.391286   0.000000
     6  H    2.203049   1.080554   2.230528   3.327849   2.670402
     7  H    3.327875   2.230570   1.080554   2.203044   4.337811
     8  H    3.391304   3.344521   2.204718   1.080167   4.405781
     9  C    1.522736   2.378094   2.378006   1.522512   2.296634
    10  H    2.174938   3.034813   3.034595   2.174636   2.712356
    11  H    2.194855   3.208174   3.208343   2.195103   2.696904
    12  C    2.100000   2.545664   2.957208   2.847495   2.516792
    13  H    2.918191   2.970465   3.507646   3.768150   3.183966
    14  H    2.947169   3.694707   4.137051   3.787272   3.025575
    15  C    2.848059   2.955431   2.543667   2.100000   3.645315
    16  H    3.791542   4.136074   3.690323   2.945067   4.454276
    17  H    3.766079   3.501878   2.967815   2.921569   4.559471
                    6          7          8          9         10
     6  H    0.000000
     7  H    2.652325   0.000000
     8  H    4.337768   2.670329   0.000000
     9  C    3.426836   3.426706   2.296370   0.000000
    10  H    4.019298   4.018956   2.711784   1.105105   0.000000
    11  H    4.217654   4.217881   2.697416   1.088052   1.772256
    12  C    3.176156   3.777859   3.644500   2.483762   3.546829
    13  H    3.223267   4.101103   4.562295   3.621610   4.675457
    14  H    4.291978   4.982138   4.447837   3.132389   4.087405
    15  C    3.775317   3.173313   2.517427   2.485793   3.548916
    16  H    4.980227   4.284588   3.021904   3.137539   4.093136
    17  H    4.092296   3.219285   3.191002   3.624892   4.679227
                   11         12         13         14         15
    11  H    0.000000
    12  C    2.324674   0.000000
    13  H    3.544106   1.219466   0.000000
    14  H    2.555597   1.237229   1.791616   0.000000
    15  C    2.328539   1.577368   2.302512   2.311834   0.000000
    16  H    2.565264   2.313650   3.009695   2.421600   1.235848
    17  H    3.550187   2.301714   2.415397   3.009876   1.221649
                   16         17
    16  H    0.000000
    17  H    1.791501   0.000000
 Stoichiometry    C7H10
 Framework group  C1[X(C7H10)]
 Deg. of freedom    45
 Full point group                 C1      NOp   1
 Largest Abelian subgroup         C1      NOp   1
 Largest concise Abelian subgroup C1      NOp   1
                         Standard orientation:                         
 ---------------------------------------------------------------------
 Center     Atomic      Atomic             Coordinates (Angstroms)
 Number     Number       Type             X           Y           Z
 ---------------------------------------------------------------------
      1          6           0       -0.537462   -1.174329    0.396736
      2          6           0       -1.086080   -0.715531   -0.785987
      3          6           0       -1.086557    0.720089   -0.781152
      4          6           0       -0.537829    1.171242    0.404487
      5          1           0       -0.421347   -2.205396    0.697003
      6          1           0       -1.427483   -1.321178   -1.613170
      7          1           0       -1.428410    1.331132   -1.604170
      8          1           0       -0.422407    2.200361    0.711657
      9          6           0       -0.294058   -0.004466    1.340611
     10          1           0       -1.030601   -0.007169    2.164477
     11          1           0        0.700073   -0.006149    1.782829
     12          6           0        1.409480   -0.787304   -0.288560
     13          1           0        1.784594   -1.206784   -1.370420
     14          1           0        2.408227   -1.206803    0.309154
     15          6           0        1.407814    0.790063   -0.287737
     16          1           0        2.405255    1.214793    0.305589
     17          1           0        1.780251    1.208607   -1.373342
 ---------------------------------------------------------------------
 Rotational constants (GHZ):           3.6151212           3.0062896           2.6973059
 Standard basis: 3-21G (6D, 7F)
 There are    83 symmetry adapted cartesian basis functions of A   symmetry.
 There are    83 symmetry adapted basis functions of A   symmetry.
    83 basis functions,   135 primitive gaussians,    83 cartesian basis functions
    26 alpha electrons       26 beta electrons
       nuclear repulsion energy       294.0335821159 Hartrees.
 NAtoms=   17 NActive=   17 NUniq=   17 SFac= 1.00D+00 NAtFMM=   60 NAOKFM=F Big=F
 Integral buffers will be    131072 words long.
 Raffenetti 2 integral format.
 Two-electron integral symmetry is turned on.
 One-electron integrals computed using PRISM.
 NBasis=    83 RedAO= T EigKep=  4.40D-03  NBF=    83
 NBsUse=    83 1.00D-06 EigRej= -1.00D+00 NBFU=    83
 Initial guess from the checkpoint file:  "C3.chk"
 B after Tr=     0.000000   -0.000000    0.000000
         Rot=    0.999981   -0.000147   -0.006120   -0.000160 Ang=  -0.70 deg.
 ExpMin= 1.83D-01 ExpMax= 1.72D+02 ExpMxC= 1.72D+02 IAcc=3 IRadAn=         5 AccDes= 0.00D+00
 Harris functional with IExCor=  402 and IRadAn=       5 diagonalized for initial guess.
 HarFok:  IExCor=  402 AccDes= 0.00D+00 IRadAn=         5 IDoV= 1 UseB2=F ITyADJ=14
 ICtDFT=  3500011 ScaDFX=  1.000000  1.000000  1.000000  1.000000
 FoFCou: FMM=F IPFlag=           0 FMFlag=      100000 FMFlg1=           0
         NFxFlg=           0 DoJE=T BraDBF=F KetDBF=T FulRan=T
         wScrn=  0.000000 ICntrl=       500 IOpCl=  0 I1Cent=   200000004 NGrid=           0
         NMat0=    1 NMatS0=      1 NMatT0=    0 NMatD0=    1 NMtDS0=    0 NMtDT0=    0
 Petite list used in FoFCou.
 Keep R1 ints in memory in canonical form, NReq=7891700.
 Requested convergence on RMS density matrix=1.00D-08 within 128 cycles.
 Requested convergence on MAX density matrix=1.00D-06.
 Requested convergence on             energy=1.00D-06.
 No special actions if energy rises.
 Integral accuracy reduced to 1.0D-05 until final iterations.
 Initial convergence to 1.0D-05 achieved.  Increase integral accuracy.
 SCF Done:  E(RB3LYP) =  -271.073998525     A.U. after   14 cycles
            NFock= 14  Conv=0.34D-08     -V/T= 2.0113
 Calling FoFJK, ICntrl=      2127 FMM=F ISym2X=0 I1Cent= 0 IOpClX= 0 NMat=1 NMatS=1 NMatT=0.
 ***** Axes restored to original set *****
 -------------------------------------------------------------------
 Center     Atomic                   Forces (Hartrees/Bohr)
 Number     Number              X              Y              Z
 -------------------------------------------------------------------
      1        6           0.082084453    0.008878910   -0.016799498
      2        6          -0.032850682   -0.052413765    0.030441942
      3        6          -0.032869842    0.052205312    0.030910237
      4        6           0.081998503   -0.008800818   -0.016664479
      5        1          -0.008359398    0.000195484   -0.001223704
      6        1           0.002270042    0.000631947   -0.000753767
      7        1           0.002283101   -0.000626629   -0.000758549
      8        1          -0.008336397   -0.000193080   -0.001204976
      9        6          -0.037073767    0.000126784   -0.021613137
     10        1          -0.003431666   -0.000033003    0.002325078
     11        1          -0.005169561   -0.000047156   -0.002801341
     12        6           0.083160376   -0.002897134    0.017962181
     13        1          -0.046480828   -0.016024790   -0.032617288
     14        1          -0.056893291   -0.018600654    0.013604823
     15        6           0.083061831    0.002742997    0.019202891
     16        1          -0.056661694    0.018905151    0.013191373
     17        1          -0.046731180    0.015950445   -0.033201785
 -------------------------------------------------------------------
 Cartesian Forces:  Max     0.083160376 RMS     0.032777946

 GradGradGradGradGradGradGradGradGradGradGradGradGradGradGradGradGradGrad
 Berny optimization.
 Using GEDIIS/GDIIS optimizer.
 FormGI is forming the generalized inverse of G from B-inverse, IUseBI=4.
 Internal  Forces:  Max     0.055599785 RMS     0.014029736
 Search for a local minimum.
 Step number   2 out of a maximum of  102
 All quantities printed in internal units (Hartrees-Bohrs-Radians)
 Mixed Optimization -- RFO/linear search
 Update second derivatives using D2CorX and points    1    2
 DE= -5.74D-02 DEPred=-5.36D-02 R= 1.07D+00
 TightC=F SS=  1.41D+00  RLast= 3.57D-01 DXNew= 5.0454D-01 1.0711D+00
 Trust test= 1.07D+00 RLast= 3.57D-01 DXMaxT set to 5.05D-01
 ITU=  1  0
 Use linear search instead of GDIIS.
 Linear search step of   0.600 exceeds DXMaxT=   0.505 but not scaled.
 Quartic linear search produced a step of  2.00000.
 Iteration  1 RMS(Cart)=  0.05139216 RMS(Int)=  0.00968034
 Iteration  2 RMS(Cart)=  0.00942505 RMS(Int)=  0.00132941
 Iteration  3 RMS(Cart)=  0.00004476 RMS(Int)=  0.00132822
 Iteration  4 RMS(Cart)=  0.00000005 RMS(Int)=  0.00132822
 Iteration  1 RMS(Cart)=  0.00007996 RMS(Int)=  0.00000538
 Iteration  2 RMS(Cart)=  0.00000071 RMS(Int)=  0.00000540
 Variable       Old X    -DE/DX   Delta X   Delta X   Delta X     New X
                                 (Linear)    (Quad)   (Total)
    R1        2.61187   0.03873   0.10784   0.00000   0.10803   2.71989
    R2        2.04120   0.00002  -0.00158   0.00000  -0.00158   2.03962
    R3        2.87755   0.00076   0.01416   0.00000   0.01547   2.89302
    R4        3.96842  -0.01897  -0.00000   0.00000  -0.00000   3.96842
    R5        2.71294  -0.04063  -0.13471   0.00000  -0.13415   2.57879
    R6        2.04195  -0.00069  -0.00271   0.00000  -0.00271   2.03925
    R7        2.61191   0.03871   0.10785   0.00000   0.10803   2.71995
    R8        2.04195  -0.00069  -0.00270   0.00000  -0.00270   2.03925
    R9        2.04122   0.00003  -0.00157   0.00000  -0.00157   2.03965
   R10        2.87713   0.00080   0.01400   0.00000   0.01531   2.89244
   R11        3.96842  -0.01900   0.00000   0.00000   0.00000   3.96843
   R12        2.08835   0.00119   0.01017   0.00000   0.01017   2.09852
   R13        2.05612  -0.00282  -0.01389   0.00000  -0.01389   2.04223
   R14        2.30446  -0.05307  -0.23596   0.00000  -0.23596   2.06850
   R15        2.33802  -0.05560  -0.24849   0.00000  -0.24849   2.08954
   R16        2.98079  -0.03332  -0.15364   0.00000  -0.15594   2.82486
   R17        2.33541  -0.05535  -0.24723   0.00000  -0.24723   2.08819
   R18        2.30858  -0.05358  -0.23855   0.00000  -0.23855   2.07003
    A1        2.21106  -0.00138  -0.01114   0.00000  -0.01213   2.19893
    A2        1.91649   0.00211   0.02149   0.00000   0.01689   1.93338
    A3        1.59838   0.00329   0.02668   0.00000   0.02552   1.62390
    A4        2.14582  -0.00230  -0.02148   0.00000  -0.02290   2.12292
    A5        1.73856   0.00333   0.01475   0.00000   0.01447   1.75302
    A6        1.48318   0.00402   0.05212   0.00000   0.05422   1.53739
    A7        1.90625   0.00029  -0.00406   0.00000  -0.00521   1.90104
    A8        2.20735  -0.00147   0.00383   0.00000   0.00413   2.21147
    A9        2.16877   0.00101  -0.00069   0.00000  -0.00042   2.16834
   A10        1.90622   0.00025  -0.00419   0.00000  -0.00534   1.90087
   A11        2.16884   0.00103  -0.00060   0.00000  -0.00033   2.16851
   A12        2.20729  -0.00145   0.00386   0.00000   0.00416   2.21145
   A13        2.21098  -0.00133  -0.01089   0.00000  -0.01189   2.19909
   A14        1.91658   0.00213   0.02161   0.00000   0.01702   1.93360
   A15        1.59661   0.00330   0.02670   0.00000   0.02554   1.62215
   A16        2.14571  -0.00238  -0.02189   0.00000  -0.02328   2.12243
   A17        1.73926   0.00335   0.01488   0.00000   0.01460   1.75387
   A18        1.48486   0.00396   0.05174   0.00000   0.05385   1.53871
   A19        1.75845  -0.00817  -0.05803   0.00000  -0.06062   1.69783
   A20        1.93231   0.00645   0.04485   0.00000   0.04535   1.97767
   A21        1.97881  -0.00121  -0.00762   0.00000  -0.00770   1.97111
   A22        1.93217   0.00643   0.04463   0.00000   0.04512   1.97729
   A23        1.97946  -0.00127  -0.00811   0.00000  -0.00814   1.97132
   A24        1.88174  -0.00185  -0.01252   0.00000  -0.01285   1.86889
   A25        2.10749  -0.01249  -0.06953   0.00000  -0.06943   2.03806
   A26        2.12736  -0.01222  -0.06535   0.00000  -0.06519   2.06217
   A27        1.75498   0.00335   0.00872   0.00000   0.00818   1.76317
   A28        1.63449   0.01593   0.10130   0.00000   0.09861   1.73309
   A29        1.92279   0.00280   0.01774   0.00000   0.01775   1.94054
   A30        1.91735   0.00419   0.01729   0.00000   0.01575   1.93311
   A31        1.75449   0.00344   0.00922   0.00000   0.00869   1.76319
   A32        2.12602  -0.01213  -0.06471   0.00000  -0.06457   2.06144
   A33        2.10969  -0.01267  -0.07078   0.00000  -0.07067   2.03902
   A34        1.92098   0.00402   0.01622   0.00000   0.01468   1.93567
   A35        1.91965   0.00290   0.01856   0.00000   0.01861   1.93826
   A36        1.63367   0.01599   0.10159   0.00000   0.09889   1.73256
    D1        3.11551  -0.00166  -0.01844   0.00000  -0.01759   3.09792
    D2       -0.06843  -0.00588  -0.04691   0.00000  -0.04652  -0.11495
    D3        0.12160   0.01026   0.08313   0.00000   0.08513   0.20673
    D4       -3.06234   0.00604   0.05467   0.00000   0.05620  -3.00614
    D5       -1.36599   0.00481   0.01870   0.00000   0.01753  -1.34846
    D6        1.73325   0.00059  -0.00977   0.00000  -0.01140   1.72185
    D7       -0.18089  -0.01440  -0.11962   0.00000  -0.11754  -0.29843
    D8        1.86401  -0.00868  -0.07985   0.00000  -0.08062   1.78339
    D9       -2.30174  -0.00719  -0.06858   0.00000  -0.06912  -2.37086
   D10        3.10179  -0.00308  -0.02316   0.00000  -0.02091   3.08088
   D11       -1.13649   0.00264   0.01662   0.00000   0.01601  -1.12048
   D12        0.98093   0.00413   0.02789   0.00000   0.02751   1.00845
   D13        1.38769  -0.00962  -0.07492   0.00000  -0.07119   1.31650
   D14       -2.85059  -0.00390  -0.03515   0.00000  -0.03428  -2.88486
   D15       -0.73316  -0.00241  -0.02387   0.00000  -0.02277  -0.75593
   D16       -0.89559  -0.00039   0.00873   0.00000   0.00871  -0.88688
   D17       -2.94143  -0.00024  -0.01123   0.00000  -0.01151  -2.95294
   D18        1.22079  -0.00128  -0.00187   0.00000  -0.00094   1.21985
   D19        1.33230  -0.00048   0.00560   0.00000   0.00537   1.33767
   D20       -0.71354  -0.00033  -0.01436   0.00000  -0.01486  -0.72840
   D21       -2.83450  -0.00137  -0.00500   0.00000  -0.00428  -2.83879
   D22       -2.81102  -0.00222  -0.00950   0.00000  -0.00808  -2.81910
   D23        1.42632  -0.00207  -0.02947   0.00000  -0.02830   1.39802
   D24       -0.69464  -0.00311  -0.02011   0.00000  -0.01773  -0.71237
   D25        0.00033  -0.00002  -0.00017   0.00000  -0.00017   0.00017
   D26        3.10046  -0.00419  -0.02770   0.00000  -0.02800   3.07246
   D27       -3.10005   0.00416   0.02743   0.00000   0.02775  -3.07231
   D28        0.00008  -0.00001  -0.00010   0.00000  -0.00009  -0.00001
   D29       -3.11539   0.00167   0.01848   0.00000   0.01766  -3.09773
   D30       -0.12215  -0.01024  -0.08291   0.00000  -0.08491  -0.20707
   D31        1.36659  -0.00484  -0.01890   0.00000  -0.01771   1.34888
   D32        0.06881   0.00588   0.04686   0.00000   0.04650   0.11531
   D33        3.06205  -0.00603  -0.05453   0.00000  -0.05607   3.00598
   D34       -1.73240  -0.00064   0.00949   0.00000   0.01113  -1.72126
   D35        0.18110   0.01439   0.11953   0.00000   0.11746   0.29857
   D36       -1.86391   0.00865   0.07959   0.00000   0.08036  -1.78355
   D37        2.30150   0.00722   0.06877   0.00000   0.06933   2.37083
   D38       -3.10221   0.00310   0.02329   0.00000   0.02107  -3.08114
   D39        1.13596  -0.00264  -0.01665   0.00000  -0.01603   1.11993
   D40       -0.98182  -0.00408  -0.02747   0.00000  -0.02706  -1.00888
   D41       -1.38620   0.00962   0.07491   0.00000   0.07120  -1.31500
   D42        2.85198   0.00388   0.03498   0.00000   0.03410   2.88608
   D43        0.73420   0.00245   0.02416   0.00000   0.02307   0.75727
   D44       -1.22714   0.00129   0.00210   0.00000   0.00120  -1.22594
   D45        2.93151   0.00038   0.01220   0.00000   0.01250   2.94401
   D46        0.88603   0.00054  -0.00757   0.00000  -0.00755   0.87848
   D47        2.82854   0.00134   0.00500   0.00000   0.00429   2.83283
   D48        0.70400   0.00042   0.01510   0.00000   0.01560   0.71960
   D49       -1.34148   0.00058  -0.00467   0.00000  -0.00445  -1.34593
   D50        0.68853   0.00315   0.02043   0.00000   0.01806   0.70659
   D51       -1.43600   0.00223   0.03053   0.00000   0.02936  -1.40664
   D52        2.80170   0.00239   0.01076   0.00000   0.00931   2.81101
   D53        0.00332  -0.00003  -0.00025   0.00000  -0.00025   0.00307
   D54        2.26686  -0.01018  -0.06296   0.00000  -0.06405   2.20281
   D55       -2.24005   0.01138   0.06831   0.00000   0.06867  -2.17139
   D56        2.24604  -0.01134  -0.06815   0.00000  -0.06851   2.17753
   D57       -1.77360  -0.02150  -0.13086   0.00000  -0.13231  -1.90592
   D58        0.00267   0.00007   0.00040   0.00000   0.00040   0.00307
   D59       -2.26016   0.01019   0.06287   0.00000   0.06397  -2.19619
   D60        0.00338   0.00004   0.00016   0.00000   0.00017   0.00355
   D61        1.77965   0.02160   0.13143   0.00000   0.13288   1.91254
         Item               Value     Threshold  Converged?
 Maximum Force            0.055600     0.000450     NO 
 RMS     Force            0.013924     0.000300     NO 
 Maximum Displacement     0.146539     0.001800     NO 
 RMS     Displacement     0.056890     0.001200     NO 
 Predicted change in Energy=-7.459343D-02
 GradGradGradGradGradGradGradGradGradGradGradGradGradGradGradGradGradGrad

                          Input orientation:                          
 ---------------------------------------------------------------------
 Center     Atomic      Atomic             Coordinates (Angstroms)
 Number     Number       Type             X           Y           Z
 ---------------------------------------------------------------------
      1          6           0       -0.693472    1.150420   -0.339564
      2          6           0       -1.116233    0.677980    0.952594
      3          6           0       -1.116142   -0.686646    0.946595
      4          6           0       -0.693071   -1.147436   -0.349693
      5          1           0       -0.631328    2.182791   -0.648249
      6          1           0       -1.334075    1.281289    1.820389
      7          1           0       -1.333870   -1.297742    1.808954
      8          1           0       -0.630785   -2.176945   -0.667811
      9          6           0       -0.672108    0.005749   -1.355926
     10          1           0       -1.547547    0.008293   -2.039141
     11          1           0        0.213682    0.008717   -1.975028
     12          6           0        1.330162    0.747543    0.051070
     13          1           0        1.739620    1.141371    0.986696
     14          1           0        2.085897    1.140386   -0.654047
     15          6           0        1.329629   -0.747304    0.048526
     16          1           0        2.086358   -1.140681   -0.654103
     17          1           0        1.736593   -1.142569    0.985583
 ---------------------------------------------------------------------
                    Distance matrix (angstroms):
                    1          2          3          4          5
     1  C    0.000000
     2  C    1.439305   0.000000
     3  C    2.282031   1.364639   0.000000
     4  C    2.297878   2.281921   1.439333   0.000000
     5  H    1.079323   2.249952   3.318469   3.344153   0.000000
     6  H    2.256745   1.079122   2.164204   3.319465   2.720428
     7  H    3.319599   2.164300   1.079123   2.256762   4.318045
     8  H    3.344105   3.318429   2.250082   1.079337   4.359780
     9  C    1.530921   2.445078   2.445031   1.530614   2.289537
    10  H    2.218662   3.095964   3.095750   2.218123   2.739065
    11  H    2.191154   3.284442   3.284485   2.191028   2.683465
    12  C    2.100000   2.608148   2.973763   2.800898   2.529116
    13  H    2.771098   2.893405   3.390964   3.597577   3.062514
    14  H    2.797122   3.612306   4.019099   3.612399   2.910318
    15  C    2.800876   2.971702   2.606147   2.100000   3.593926
    16  H    3.616011   4.018158   3.608932   2.796057   4.293171
    17  H    3.594306   3.384392   2.889202   2.772410   4.397099
                    6          7          8          9         10
     6  H    0.000000
     7  H    2.579056   0.000000
     8  H    4.318002   2.720605   0.000000
     9  C    3.486285   3.486184   2.288966   0.000000
    10  H    4.069652   4.069302   2.737931   1.110487   0.000000
    11  H    4.291874   4.291884   2.683107   1.080704   1.762395
    12  C    3.242458   3.790833   3.593708   2.557144   3.632724
    13  H    3.187824   4.008955   4.400845   3.548796   4.609232
    14  H    4.223612   4.868845   4.287801   3.063760   4.049942
    15  C    3.788140   3.239802   2.529869   2.558618   3.634201
    16  H    4.867074   4.217734   2.908074   3.068549   4.055087
    17  H    4.000124   3.182729   3.067267   3.550091   4.610750
                   11         12         13         14         15
    11  H    0.000000
    12  C    2.428470   0.000000
    13  H    3.518977   1.094601   0.000000
    14  H    2.555553   1.105736   1.676886   0.000000
    15  C    2.431394   1.494849   2.148336   2.151493   0.000000
    16  H    2.563761   2.152788   2.831998   2.281068   1.105022
    17  H    3.522774   2.147330   2.283943   2.832364   1.095414
                   16         17
    16  H    0.000000
    17  H    1.676577   0.000000
 Stoichiometry    C7H10
 Framework group  C1[X(C7H10)]
 Deg. of freedom    45
 Full point group                 C1      NOp   1
 Largest Abelian subgroup         C1      NOp   1
 Largest concise Abelian subgroup C1      NOp   1
                         Standard orientation:                         
 ---------------------------------------------------------------------
 Center     Atomic      Atomic             Coordinates (Angstroms)
 Number     Number       Type             X           Y           Z
 ---------------------------------------------------------------------
      1          6           0       -0.485302   -1.151127    0.406258
      2          6           0       -1.129835   -0.679512   -0.791138
      3          6           0       -1.130851    0.685113   -0.785027
      4          6           0       -0.486764    1.146728    0.416532
      5          1           0       -0.368115   -2.183361    0.698999
      6          1           0       -1.496190   -1.283269   -1.607083
      7          1           0       -1.498060    1.295760   -1.595443
      8          1           0       -0.371041    2.176373    0.718869
      9          6           0       -0.287037   -0.006302    1.403147
     10          1           0       -1.028419   -0.010155    2.229899
     11          1           0        0.693969   -0.007790    1.856519
     12          6           0        1.437225   -0.745083   -0.334699
     13          1           0        1.676077   -1.138371   -1.327889
     14          1           0        2.305980   -1.136641    0.226192
     15          6           0        1.434780    0.749761   -0.331857
     16          1           0        2.302830    1.144424    0.226537
     17          1           0        1.669675    1.145562   -1.325888
 ---------------------------------------------------------------------
 Rotational constants (GHZ):           3.6616016           2.9225751           2.7498072
 Standard basis: 3-21G (6D, 7F)
 There are    83 symmetry adapted cartesian basis functions of A   symmetry.
 There are    83 symmetry adapted basis functions of A   symmetry.
    83 basis functions,   135 primitive gaussians,    83 cartesian basis functions
    26 alpha electrons       26 beta electrons
       nuclear repulsion energy       295.4704073540 Hartrees.
 NAtoms=   17 NActive=   17 NUniq=   17 SFac= 1.00D+00 NAtFMM=   60 NAOKFM=F Big=F
 Integral buffers will be    131072 words long.
 Raffenetti 2 integral format.
 Two-electron integral symmetry is turned on.
 One-electron integrals computed using PRISM.
 NBasis=    83 RedAO= T EigKep=  4.43D-03  NBF=    83
 NBsUse=    83 1.00D-06 EigRej= -1.00D+00 NBFU=    83
 Initial guess from the checkpoint file:  "C3.chk"
 B after Tr=    -0.000000    0.000000   -0.000000
         Rot=    0.999940   -0.000601   -0.010903   -0.000228 Ang=  -1.25 deg.
 ExpMin= 1.83D-01 ExpMax= 1.72D+02 ExpMxC= 1.72D+02 IAcc=3 IRadAn=         5 AccDes= 0.00D+00
 Harris functional with IExCor=  402 and IRadAn=       5 diagonalized for initial guess.
 HarFok:  IExCor=  402 AccDes= 0.00D+00 IRadAn=         5 IDoV= 1 UseB2=F ITyADJ=14
 ICtDFT=  3500011 ScaDFX=  1.000000  1.000000  1.000000  1.000000
 FoFCou: FMM=F IPFlag=           0 FMFlag=      100000 FMFlg1=           0
         NFxFlg=           0 DoJE=T BraDBF=F KetDBF=T FulRan=T
         wScrn=  0.000000 ICntrl=       500 IOpCl=  0 I1Cent=   200000004 NGrid=           0
         NMat0=    1 NMatS0=      1 NMatT0=    0 NMatD0=    1 NMtDS0=    0 NMtDT0=    0
 Petite list used in FoFCou.
 Keep R1 ints in memory in canonical form, NReq=7891700.
 Requested convergence on RMS density matrix=1.00D-08 within 128 cycles.
 Requested convergence on MAX density matrix=1.00D-06.
 Requested convergence on             energy=1.00D-06.
 No special actions if energy rises.
 Integral accuracy reduced to 1.0D-05 until final iterations.
 Initial convergence to 1.0D-05 achieved.  Increase integral accuracy.
 SCF Done:  E(RB3LYP) =  -271.138272401     A.U. after   14 cycles
            NFock= 14  Conv=0.53D-08     -V/T= 2.0097
 Calling FoFJK, ICntrl=      2127 FMM=F ISym2X=0 I1Cent= 0 IOpClX= 0 NMat=1 NMatS=1 NMatT=0.
 ***** Axes restored to original set *****
 -------------------------------------------------------------------
 Center     Atomic                   Forces (Hartrees/Bohr)
 Number     Number              X              Y              Z
 -------------------------------------------------------------------
      1        6           0.069552644    0.010323872    0.006215401
      2        6          -0.017454540    0.001234536   -0.006979122
      3        6          -0.017463460   -0.001108845   -0.007038210
      4        6           0.069519744   -0.010471677    0.006345390
      5        1          -0.008493153    0.002491278    0.000584219
      6        1           0.002295280    0.004355306   -0.001675196
      7        1           0.002298908   -0.004332458   -0.001713177
      8        1          -0.008464432   -0.002510644    0.000612026
      9        6          -0.029760737    0.000032258    0.007466178
     10        1          -0.001607838   -0.000035762    0.009565453
     11        1           0.001864500   -0.000000719   -0.003612290
     12        6           0.013879298   -0.007874215    0.001081039
     13        1          -0.023666948    0.005477840    0.009943529
     14        1          -0.021339388    0.002836115   -0.015998003
     15        6           0.013777430    0.007778658    0.002153441
     16        1          -0.020991720   -0.002673896   -0.016387770
     17        1          -0.023945588   -0.005521646    0.009437093
 -------------------------------------------------------------------
 Cartesian Forces:  Max     0.069552644 RMS     0.017302300

 GradGradGradGradGradGradGradGradGradGradGradGradGradGradGradGradGradGrad
 Berny optimization.
 Using GEDIIS/GDIIS optimizer.
 FormGI is forming the generalized inverse of G from B-inverse, IUseBI=4.
 Internal  Forces:  Max     0.030376721 RMS     0.007033019
 Search for a local minimum.
 Step number   3 out of a maximum of  102
 All quantities printed in internal units (Hartrees-Bohrs-Radians)
 Mixed Optimization -- RFO/linear search
 Update second derivatives using D2CorX and points    2    3
 ITU=  0  1  0
 Use linear search instead of GDIIS.
     Eigenvalues ---    0.00408   0.01583   0.01927   0.02187   0.02336
     Eigenvalues ---    0.02518   0.02983   0.03288   0.03439   0.04710
     Eigenvalues ---    0.05083   0.05712   0.05775   0.06076   0.06089
     Eigenvalues ---    0.06222   0.06903   0.06989   0.06999   0.08183
     Eigenvalues ---    0.09727   0.11926   0.14232   0.15015   0.15888
     Eigenvalues ---    0.15921   0.16798   0.18490   0.18853   0.19463
     Eigenvalues ---    0.20950   0.23708   0.26255   0.26900   0.33371
     Eigenvalues ---    0.34068   0.34707   0.35841   0.35845   0.35924
     Eigenvalues ---    0.35949   0.45134   0.488781000.000001000.00000
     Eigenvalues --- 1000.000001000.000001000.000001000.000001000.00000
     Eigenvalues --- 1000.000001000.000001000.000001000.000001000.00000
     Eigenvalues --- 1000.000001000.000001000.000001000.000001000.00000
     Eigenvalues --- 1000.000001000.000001000.000001000.000001000.00000
     Eigenvalues --- 1000.000001000.000001000.000001000.000001000.00000
     Eigenvalues --- 1000.000001000.000001000.000001000.000001000.00000
     Eigenvalues --- 1000.000001000.000001000.000001000.000001000.00000
     Eigenvalues --- 1000.000001000.000001000.000001000.000001000.00000
     Eigenvalues --- 1000.000001000.000001000.000001000.000001000.00000
     Eigenvalues --- 1000.000001000.000001000.000001000.000001000.00000
     Eigenvalues --- 1000.000001000.000001000.000001000.000001000.00000
     Eigenvalues --- 1000.000001000.000001000.000001000.000001000.00000
     Eigenvalues --- 1000.000001000.000001000.000001000.000001000.00000
     Eigenvalues --- 1000.000001000.000001000.000001000.000001000.00000
 RFO step:  Lambda=-3.50795063D-02 EMin= 4.08370176D-03
 Quartic linear search produced a step of  0.17649.
 Iteration  1 RMS(Cart)=  0.04602832 RMS(Int)=  0.00390400
 Iteration  2 RMS(Cart)=  0.00299397 RMS(Int)=  0.00227272
 Iteration  3 RMS(Cart)=  0.00001328 RMS(Int)=  0.00227268
 Iteration  4 RMS(Cart)=  0.00000008 RMS(Int)=  0.00227268
 Iteration  1 RMS(Cart)=  0.00002087 RMS(Int)=  0.00000144
 Iteration  2 RMS(Cart)=  0.00000020 RMS(Int)=  0.00000145
 Variable       Old X    -DE/DX   Delta X   Delta X   Delta X     New X
                                 (Linear)    (Quad)   (Total)
    R1        2.71989  -0.00187   0.01907  -0.00531   0.01381   2.73370
    R2        2.03962   0.00173  -0.00028   0.00472   0.00444   2.04407
    R3        2.89302  -0.00063   0.00273  -0.00072   0.00230   2.89532
    R4        3.96842  -0.03036  -0.00000   0.00000   0.00000   3.96842
    R5        2.57879   0.01009  -0.02368   0.03804   0.01455   2.59335
    R6        2.03925   0.00063  -0.00048   0.00183   0.00135   2.04059
    R7        2.71995  -0.00190   0.01907  -0.00531   0.01382   2.73377
    R8        2.03925   0.00062  -0.00048   0.00181   0.00134   2.04058
    R9        2.03965   0.00173  -0.00028   0.00472   0.00444   2.04409
   R10        2.89244  -0.00049   0.00270  -0.00040   0.00259   2.89503
   R11        3.96843  -0.03038   0.00000   0.00000  -0.00000   3.96842
   R12        2.09852  -0.00462   0.00179  -0.01369  -0.01189   2.08662
   R13        2.04223   0.00360  -0.00245   0.01063   0.00818   2.05041
   R14        2.06850   0.00162  -0.04164   0.02790  -0.01374   2.05476
   R15        2.08954  -0.00337  -0.04385   0.00623  -0.03762   2.05191
   R16        2.82486   0.00332  -0.02752   0.01644  -0.01166   2.81320
   R17        2.08819  -0.00300  -0.04363   0.00789  -0.03574   2.05244
   R18        2.07003   0.00117  -0.04210   0.02624  -0.01586   2.05417
    A1        2.19893   0.00012  -0.00214  -0.00201  -0.00747   2.19146
    A2        1.93338  -0.00648   0.00298  -0.05537  -0.05671   1.87667
    A3        1.62390   0.00396   0.00450   0.04153   0.04789   1.67179
    A4        2.12292   0.00427  -0.00404   0.02883   0.02182   2.14475
    A5        1.75302   0.00352   0.00255   0.03286   0.03468   1.78770
    A6        1.53739  -0.00004   0.00957   0.03397   0.04367   1.58106
    A7        1.90104   0.00092  -0.00092   0.00995   0.00776   1.90879
    A8        2.21147  -0.00548   0.00073  -0.03306  -0.03190   2.17957
    A9        2.16834   0.00439  -0.00007   0.02147   0.02175   2.19009
   A10        1.90087   0.00090  -0.00094   0.01002   0.00780   1.90868
   A11        2.16851   0.00439  -0.00006   0.02140   0.02170   2.19021
   A12        2.21145  -0.00546   0.00073  -0.03306  -0.03190   2.17955
   A13        2.19909   0.00016  -0.00210  -0.00191  -0.00733   2.19176
[...]
 ! D16   D(2,1,12,13)          -54.8434         -DE/DX =    0.0001              !
 ! D17   D(2,1,12,14)         -171.2813         -DE/DX =    0.0001              !
 ! D18   D(2,1,12,15)           67.6405         -DE/DX =    0.0001              !
 ! D19   D(5,1,12,13)           74.7986         -DE/DX =    0.0                 !
 ! D20   D(5,1,12,14)          -41.6394         -DE/DX =    0.0001              !
 ! D21   D(5,1,12,15)         -162.7175         -DE/DX =    0.0                 !
 ! D22   D(9,1,12,13)         -160.6836         -DE/DX =   -0.0002              !
 ! D23   D(9,1,12,14)           82.8784         -DE/DX =   -0.0002              !
 ! D24   D(9,1,12,15)          -38.1997         -DE/DX =   -0.0002              !
 ! D25   D(1,2,3,4)             -0.0004         -DE/DX =    0.0                 !
 ! D26   D(1,2,3,7)            171.6623         -DE/DX =   -0.0004              !
 ! D27   D(6,2,3,4)           -171.6627         -DE/DX =    0.0004              !
 ! D28   D(6,2,3,7)              0.0            -DE/DX =    0.0                 !
 ! D29   D(2,3,4,8)           -168.428          -DE/DX =   -0.0004              !
 ! D30   D(2,3,4,9)            -22.3304         -DE/DX =   -0.0002              !
 ! D31   D(2,3,4,15)            73.0321         -DE/DX =   -0.0009              !
 ! D32   D(7,3,4,8)             19.812          -DE/DX =    0.0                 !
 ! D33   D(7,3,4,9)            165.9096         -DE/DX =    0.0002              !
 ! D34   D(7,3,4,15)           -98.7279         -DE/DX =   -0.0006              !
 ! D35   D(3,4,9,1)             33.4465         -DE/DX =    0.0002              !
 ! D36   D(3,4,9,10)           -79.8721         -DE/DX =   -0.0001              !
 ! D37   D(3,4,9,11)           156.4552         -DE/DX =   -0.0002              !
 ! D38   D(8,4,9,1)           -179.9688         -DE/DX =    0.0003              !
 ! D39   D(8,4,9,10)            66.7126         -DE/DX =    0.0001              !
 ! D40   D(8,4,9,11)           -56.9601         -DE/DX =    0.0                 !
 ! D41   D(15,4,9,1)           -68.1037         -DE/DX =    0.0005              !
 ! D42   D(15,4,9,10)          178.5778         -DE/DX =    0.0003              !
 ! D43   D(15,4,9,11)           54.9051         -DE/DX =    0.0001              !
 ! D44   D(3,4,15,12)          -67.6337         -DE/DX =   -0.0001              !
 ! D45   D(3,4,15,16)          171.2891         -DE/DX =   -0.0001              !
 ! D46   D(3,4,15,17)           54.8512         -DE/DX =   -0.0001              !
 ! D47   D(8,4,15,12)          162.724          -DE/DX =    0.0                 !
 ! D48   D(8,4,15,16)           41.6468         -DE/DX =   -0.0001              !
 ! D49   D(8,4,15,17)          -74.7911         -DE/DX =    0.0                 !
 ! D50   D(9,4,15,12)           38.2063         -DE/DX =    0.0002              !
 ! D51   D(9,4,15,16)          -82.8709         -DE/DX =    0.0002              !
 ! D52   D(9,4,15,17)          160.6912         -DE/DX =    0.0002              !
 ! D53   D(1,12,15,4)           -0.0034         -DE/DX =    0.0                 !
 ! D54   D(1,12,15,16)         106.1653         -DE/DX =    0.0001              !
 ! D55   D(1,12,15,17)        -108.7798         -DE/DX =   -0.0001              !
 ! D56   D(13,12,15,4)         108.7726         -DE/DX =    0.0001              !
 ! D57   D(13,12,15,16)       -145.0588         -DE/DX =    0.0002              !
 ! D58   D(13,12,15,17)         -0.0039         -DE/DX =    0.0                 !
 ! D59   D(14,12,15,4)        -106.1732         -DE/DX =   -0.0001              !
 ! D60   D(14,12,15,16)         -0.0046         -DE/DX =    0.0                 !
 ! D61   D(14,12,15,17)        145.0503         -DE/DX =   -0.0002              !
 --------------------------------------------------------------------------------
 GradGradGradGradGradGradGradGradGradGradGradGradGradGradGradGradGradGrad

                          Input orientation:                          
 ---------------------------------------------------------------------
 Center     Atomic      Atomic             Coordinates (Angstroms)
 Number     Number       Type             X           Y           Z
 ---------------------------------------------------------------------
      1          6           0       -0.508756    1.162189   -0.313900
      2          6           0       -1.135683    0.687474    0.890605
      3          6           0       -1.135597   -0.693672    0.885762
      4          6           0       -0.508621   -1.159855   -0.322046
      5          1           0       -0.546708    2.197370   -0.632240
      6          1           0       -1.423727    1.314854    1.723232
      7          1           0       -1.423564   -1.326909    1.713970
      8          1           0       -0.546471   -2.192784   -0.647635
      9          6           0       -0.626795    0.004633   -1.307884
     10          1           0       -1.642647    0.006074   -1.734899
     11          1           0        0.111417    0.007492   -2.109995
     12          6           0        1.501401    0.716691    0.099377
     13          1           0        1.619211    1.233878    1.045365
     14          1           0        1.949395    1.230282   -0.747446
     15          6           0        1.501500   -0.717033    0.094274
     16          1           0        1.949510   -1.224524   -0.756247
     17          1           0        1.619445   -1.240946    1.036554
 ---------------------------------------------------------------------
                    Distance matrix (angstroms):
                    1          2          3          4          5
     1  C    0.000000
     2  C    1.438479   0.000000
     3  C    2.297028   1.381154   0.000000
     4  C    2.322058   2.297031   1.438480   0.000000
     5  H    1.083688   2.223900   3.318018   3.371739   0.000000
     6  H    2.238389   1.081593   2.195120   3.338378   2.663878
     7  H    3.338373   2.195118   1.081593   2.238390   4.323669
     8  H    3.371741   3.318017   2.223896   1.083690   4.390180
     9  C    1.530318   2.357667   2.357667   1.530318   2.295866
    10  H    2.154425   2.759455   2.759458   2.154427   2.686767
    11  H    2.223487   3.319824   3.319825   2.223490   2.722582
    12  C    2.100000   2.753381   3.092133   2.781944   2.631050
    13  H    2.526061   2.812819   3.365990   3.482447   2.904114
    14  H    2.497019   3.534905   3.985742   3.454788   2.679377
    15  C    2.781943   3.092170   2.753412   2.100000   3.635481
    16  H    3.454728   3.985759   3.534952   2.497023   4.237434
    17  H    3.482532   3.366131   2.812918   2.526072   4.393076
                    6          7          8          9         10
     6  H    0.000000
     7  H    2.641779   0.000000
     8  H    4.323669   2.663871   0.000000
     9  C    3.396976   3.396976   2.295870   0.000000
    10  H    3.703985   3.703990   2.686768   1.101952   0.000000
    11  H    4.331223   4.331224   2.722596   1.090113   1.793722
    12  C    3.398689   3.916457   3.635498   2.648892   3.708717
    13  H    3.118579   4.032758   4.392999   3.477552   4.458373
    14  H    4.182028   4.896391   4.237533   2.907415   3.921290
    15  C    3.916507   3.398730   2.631055   2.648865   3.708694
    16  H    4.896426   4.182115   2.679411   2.907315   3.921189
    17  H    4.032932   3.118684   2.904080   3.477564   4.458392
                   11         12         13         14         15
    11  H    0.000000
    12  C    2.704874   0.000000
    13  H    3.705909   1.084553   0.000000
    14  H    2.594209   1.087006   1.822966   0.000000
    15  C    2.704823   1.433732   2.173588   2.168210   0.000000
    16  H    2.594048   2.168227   3.065721   2.454822   1.087036
    17  H    3.705877   2.173610   2.474840   3.065696   1.084569
                   16         17
    16  H    0.000000
    17  H    1.823005   0.000000
 Stoichiometry    C7H10
 Framework group  C1[X(C7H10)]
 Deg. of freedom    45
 Full point group                 C1      NOp   1
 Largest Abelian subgroup         C1      NOp   1
 Largest concise Abelian subgroup C1      NOp   1
                         Standard orientation:                         
 ---------------------------------------------------------------------
 Center     Atomic      Atomic             Coordinates (Angstroms)
 Number     Number       Type             X           Y           Z
 ---------------------------------------------------------------------
      1          6           0       -0.383953   -1.161006    0.363360
      2          6           0       -1.189618   -0.690602   -0.731559
      3          6           0       -1.189597    0.690553   -0.731632
      4          6           0       -0.383926    1.161052    0.363242
      5          1           0       -0.371690   -2.195050    0.687371
      6          1           0       -1.602399   -1.320950   -1.507521
      7          1           0       -1.602359    1.320829   -1.507661
      8          1           0       -0.371657    2.195131    0.687146
      9          6           0       -0.347783    0.000073    1.359583
     10          1           0       -1.285520    0.000111    1.938330
     11          1           0        0.505425    0.000095    2.038098
     12          6           0        1.538026   -0.716902   -0.356895
     13          1           0        1.508664   -1.237446   -1.307910
     14          1           0        2.111700   -1.227462    0.412397
     15          6           0        1.538069    0.716830   -0.356898
     16          1           0        2.111731    1.227361    0.412464
     17          1           0        1.508803    1.237394   -1.307921
 ---------------------------------------------------------------------
 Rotational constants (GHZ):           3.7708919           2.8852314           2.6307399

 **********************************************************************

            Population analysis using the SCF Density.

 **********************************************************************

 Orbital symmetries:
       Occupied  (A) (A) (A) (A) (A) (A) (A) (A) (A) (A) (A) (A)
                 (A) (A) (A) (A) (A) (A) (A) (A) (A) (A) (A) (A)
                 (A) (A)
       Virtual   (A) (A) (A) (A) (A) (A) (A) (A) (A) (A) (A) (A)
                 (A) (A) (A) (A) (A) (A) (A) (A) (A) (A) (A) (A)
                 (A) (A) (A) (A) (A) (A) (A) (A) (A) (A) (A) (A)
                 (A) (A) (A) (A) (A) (A) (A) (A) (A) (A) (A) (A)
                 (A) (A) (A) (A) (A) (A) (A) (A) (A)
 The electronic state is 1-A.
 Alpha  occ. eigenvalues --  -10.13275 -10.13197 -10.11881 -10.11509 -10.11399
 Alpha  occ. eigenvalues --  -10.11087 -10.10964  -0.85648  -0.73499  -0.69848
 Alpha  occ. eigenvalues --   -0.69085  -0.57008  -0.55160  -0.51616  -0.50878
 Alpha  occ. eigenvalues --   -0.45374  -0.43313  -0.39429  -0.37620  -0.37104
 Alpha  occ. eigenvalues --   -0.36336  -0.35185  -0.33200  -0.30967  -0.23005
 Alpha  occ. eigenvalues --   -0.21399
 Alpha virt. eigenvalues --    0.01995   0.02485   0.12667   0.14019   0.15588
 Alpha virt. eigenvalues --    0.15987   0.18246   0.18811   0.19356   0.20055
 Alpha virt. eigenvalues --    0.21273   0.21662   0.23949   0.25477   0.27650
 Alpha virt. eigenvalues --    0.32514   0.33097   0.41170   0.43237   0.66176
 Alpha virt. eigenvalues --    0.67052   0.71091   0.72043   0.73285   0.75302
 Alpha virt. eigenvalues --    0.75473   0.77085   0.77257   0.79092   0.82487
 Alpha virt. eigenvalues --    0.86591   0.91736   0.92499   0.93604   0.98931
 Alpha virt. eigenvalues --    0.99751   1.01673   1.01843   1.02229   1.04219
 Alpha virt. eigenvalues --    1.06917   1.07776   1.11230   1.11400   1.14914
 Alpha virt. eigenvalues --    1.17980   1.32317   1.35679   1.38215   1.41521
 Alpha virt. eigenvalues --    1.41834   1.72547   1.73875   2.02690   2.11046
 Alpha virt. eigenvalues --    2.14108   2.67791
          Condensed to atoms (all electrons):
               1          2          3          4          5          6
     1  C    5.396862   0.395604  -0.109585  -0.148012   0.389648  -0.036355
     2  C    0.395604   5.213248   0.489265  -0.109583  -0.036908   0.391583
     3  C   -0.109585   0.489265   5.213248   0.395604   0.004529  -0.036563
     4  C   -0.148012  -0.109583   0.395604   5.396858   0.003955   0.004266
     5  H    0.389648  -0.036908   0.004529   0.003955   0.514086  -0.001930
     6  H   -0.036355   0.391583  -0.036563   0.004266  -0.001930   0.504496
     7  H    0.004267  -0.036564   0.391583  -0.036355  -0.000049  -0.002015
     8  H    0.003955   0.004529  -0.036909   0.389648  -0.000054  -0.000049
     9  C    0.309680  -0.119200  -0.119199   0.309682  -0.030544   0.003713
    10  H   -0.041112   0.002199   0.002200  -0.041112  -0.000486  -0.000115
    11  H   -0.033995   0.004409   0.004409  -0.033995  -0.001090  -0.000046
    12  C    0.135708  -0.029989  -0.019459  -0.027266  -0.012680   0.000348
    13  H   -0.012719  -0.002814   0.000848   0.001479   0.000169   0.000237
    14  H   -0.011738   0.000631   0.000266   0.001717   0.000169  -0.000010
    15  C   -0.027265  -0.019456  -0.029986   0.135708   0.000556  -0.000222
    16  H    0.001716   0.000266   0.000631  -0.011739  -0.000019   0.000001
    17  H    0.001480   0.000848  -0.002815  -0.012719  -0.000015   0.000006
               7          8          9         10         11         12
     1  C    0.004267   0.003955   0.309680  -0.041112  -0.033995   0.135708
     2  C   -0.036564   0.004529  -0.119200   0.002199   0.004409  -0.029989
     3  C    0.391583  -0.036909  -0.119199   0.002200   0.004409  -0.019459
     4  C   -0.036355   0.389648   0.309682  -0.041112  -0.033995  -0.027266
     5  H   -0.000049  -0.000054  -0.030544  -0.000486  -0.001090  -0.012680
     6  H   -0.002015  -0.000049   0.003713  -0.000115  -0.000046   0.000348
     7  H    0.504496  -0.001930   0.003713  -0.000115  -0.000046  -0.000222
     8  H   -0.001930   0.514087  -0.030544  -0.000486  -0.001090   0.000556
     9  C    0.003713  -0.030544   5.407097   0.346009   0.371601  -0.044919
    10  H   -0.000115  -0.000486   0.346009   0.538864  -0.024515   0.003101
    11  H   -0.000046  -0.001090   0.371601  -0.024515   0.527402  -0.002410
    12  C   -0.000222   0.000556  -0.044919   0.003101  -0.002410   5.308645
    13  H    0.000006  -0.000015   0.001067  -0.000023   0.000065   0.380855
    14  H    0.000001  -0.000019  -0.000686  -0.000019   0.000731   0.373639
    15  C    0.000348  -0.012680  -0.044924   0.003102  -0.002411   0.397783
    16  H   -0.000010   0.000168  -0.000686  -0.000019   0.000731  -0.046050
    17  H    0.000237   0.000169   0.001067  -0.000023   0.000065  -0.042984
              13         14         15         16         17
     1  C   -0.012719  -0.011738  -0.027265   0.001716   0.001480
     2  C   -0.002814   0.000631  -0.019456   0.000266   0.000848
     3  C    0.000848   0.000266  -0.029986   0.000631  -0.002815
     4  C    0.001479   0.001717   0.135708  -0.011739  -0.012719
     5  H    0.000169   0.000169   0.000556  -0.000019  -0.000015
     6  H    0.000237  -0.000010  -0.000222   0.000001   0.000006
     7  H    0.000006   0.000001   0.000348  -0.000010   0.000237
     8  H   -0.000015  -0.000019  -0.012680   0.000168   0.000169
     9  C    0.001067  -0.000686  -0.044924  -0.000686   0.001067
    10  H   -0.000023  -0.000019   0.003102  -0.000019  -0.000023
    11  H    0.000065   0.000731  -0.002411   0.000731   0.000065
    12  C    0.380855   0.373639   0.397783  -0.046050  -0.042984
    13  H    0.515615  -0.031071  -0.042986   0.002934  -0.004732
    14  H   -0.031071   0.527690  -0.046049  -0.004744   0.002934
    15  C   -0.042986  -0.046049   5.308642   0.373636   0.380855
    16  H    0.002934  -0.004744   0.373636   0.527702  -0.031070
    17  H   -0.004732   0.002934   0.380855  -0.031070   0.515617
 Mulliken charges:
               1
     1  C   -0.218138
     2  C   -0.148067
     3  C   -0.148067
     4  C   -0.218137
     5  H    0.170665
     6  H    0.172654
     7  H    0.172654
     8  H    0.170664
     9  C   -0.362928
    10  H    0.212548
    11  H    0.190185
    12  C   -0.374656
    13  H    0.191085
    14  H    0.186559
    15  C   -0.374651
    16  H    0.186550
    17  H    0.191081
 Sum of Mulliken charges =   0.00000
 Mulliken charges with hydrogens summed into heavy atoms:
               1
     1  C   -0.047473
     2  C    0.024588
     3  C    0.024587
     4  C   -0.047473
     9  C    0.039805
    12  C    0.002987
    15  C    0.002980
 Electronic spatial extent (au):  <R**2>=            644.2989
 Charge=              0.0000 electrons
 Dipole moment (field-independent basis, Debye):
    X=              0.1412    Y=             -0.0000    Z=              0.2550  Tot=              0.2915
 Quadrupole moment (field-independent basis, Debye-Ang):
   XX=            -45.6253   YY=            -41.1382   ZZ=            -41.5381
   XY=              0.0001   XZ=              1.5987   YZ=             -0.0001
 Traceless Quadrupole moment (field-independent basis, Debye-Ang):
   XX=             -2.8581   YY=              1.6290   ZZ=              1.2291
   XY=              0.0001   XZ=              1.5987   YZ=             -0.0001
 Octapole moment (field-independent basis, Debye-Ang**2):
  XXX=              2.1515  YYY=             -0.0002  ZZZ=             -0.9906  XYY=             -0.5452
  XXY=             -0.0003  XXZ=              0.5863  XZZ=             -1.3854  YZZ=              0.0001
  YYZ=             -0.5102  XYZ=             -0.0002
 Hexadecapole moment (field-independent basis, Debye-Ang**3):
 XXXX=           -409.3388 YYYY=           -254.6509 ZZZZ=           -218.3977 XXXY=              0.0002
 XXXZ=             10.8598 YYYX=              0.0002 YYYZ=             -0.0005 ZZZX=              3.7292
 ZZZY=             -0.0005 XXYY=           -106.8642 XXZZ=            -93.5403 YYZZ=            -76.6101
 XXYZ=              0.0001 YYXZ=              3.7597 ZZXY=              0.0001
 N-N= 2.952269736695D+02 E-N=-1.217699947397D+03  KE= 2.685999787052D+02
 1\1\GINC-TACHAS\FOpt\RB3LYP\3-21G\C7H10\LEOS\20-Oct-2019\0\\# opt=modr
 edundant b3lyp/3-21g geom=connectivity\\Title Card Required\\0,1\C,-0.
 5087562813,1.1621887044,-0.3139000608\C,-1.1356828449,0.6874743123,0.8
 906048222\C,-1.1355971944,-0.6936715911,0.8857617864\C,-0.5086212665,-
 1.159854552,-0.3220459946\H,-0.5467082789,2.1973698614,-0.6322399952\H
 ,-1.4237273654,1.3148541509,1.7232320575\H,-1.4235640294,-1.3269085499
 ,1.7139699403\H,-0.5464707637,-2.1927835812,-0.6476349721\C,-0.6267949
 03,0.0046331824,-1.3078840795\H,-1.6426467594,0.0060740614,-1.73489924
 64\H,0.1114166774,0.0074924552,-2.1099952305\C,1.5014014397,0.71669083
 6,0.0993765785\H,1.6192110171,1.2338780948,1.0453647929\H,1.94939476,1
 .2302821557,-0.7474460084\C,1.5014998107,-0.7170325264,0.0942735044\H,
 1.9495100235,-1.224524408,-0.7562470458\H,1.6194452085,-1.2409462458,1
 .0365542011\\Version=ES64L-G16RevB.01\State=1-A\HF=-271.1861472\RMSD=6
 .352e-09\RMSF=7.155e-03\Dipole=0.0393745,0.0003948,-0.1077092\Quadrupo
 le=-2.4151043,1.2111113,1.2039929,0.0021729,-0.6683519,-0.0000355\PG=C
 01 [X(C7H10)]\\@


 BUT 'GLORY' DOESN'T MEAN 'A NICE KNOCK DOWN ARGUMENT', ALICE OBJECTED.
 WHEN I USE A WORD, HUMPTY DUMPTY SAID, IN A RATHER SCORNFUL TONE,
 IT MEANS JUST WHAT I CHOOSE IT TO MEAN....
 NEITHER MORE NOR LESS....
 THE QUESTION IS, SAID ALICE,
 WHETHER YOU CAN MAKE WORDS MEAN SO MANY DIFFERENT THINGS...
 THE QUESTION IS, SAID HUMPTY DUMPTY,
 WHICH IS TO BE MASTER....
 THAT IS ALL.....

 ALICE THROUGH THE LOOKING GLASS
 Job cpu time:       0 days  0 hours  6 minutes 58.8 seconds.
 Elapsed time:       0 days  0 hours  3 minutes 31.5 seconds.
 File lengths (MBytes):  RWF=     10 Int=      0 D2E=      0 Chk=      2 Scr=      1
 Normal termination of Gaussian 16 at Sun Oct 20 19:27:07 2019.
