 Entering Gaussian System, Link 0=g16
 Input=/home/leos/jsmolpage/PDB/Ciclo/C2.2.com
 Output=/home/leos/jsmolpage/PDB/Ciclo/C2.2.log
 Initial command:
 /opt/g16/l1.exe "/tmp/Gau-7320.inp" -scrdir="/tmp/"
 Entering Link 1 = /opt/g16/l1.exe PID=      7323.
  
 Copyright (c) 1988-2017, Gaussian, Inc.  All Rights Reserved.
  
 This is part of the Gaussian(R) 16 program.  It is based on
 the Gaussian(R) 09 system (copyright 2009, Gaussian, Inc.),
 the Gaussian(R) 03 system (copyright 2003, Gaussian, Inc.),
 the Gaussian(R) 98 system (copyright 1998, Gaussian, Inc.),
 the Gaussian(R) 94 system (copyright 1995, Gaussian, Inc.),
 the Gaussian 92(TM) system (copyright 1992, Gaussian, Inc.),
 the Gaussian 90(TM) system (copyright 1990, Gaussian, Inc.),
 the Gaussian 88(TM) system (copyright 1988, Gaussian, Inc.),
 the Gaussian 86(TM) system (copyright 1986, Carnegie Mellon
 University), and the Gaussian 82(TM) system (copyright 1983,
 Carnegie Mellon University). Gaussian is a federally registered
 trademark of Gaussian, Inc.
  
 This software contains proprietary and confidential information,
 including trade secrets, belonging to Gaussian, Inc.
  
 This software is provided under written license and may be
 used, copied, transmitted, or stored only in accord with that
 written license.
  
 The following legend is applicable only to US Government
 contracts under FAR:
  
                    RESTRICTED RIGHTS LEGEND
  
 Use, reproduction and disclosure by the US Government is
 subject to restrictions as set forth in subparagraphs (a)
 and (c) of the Commercial Computer Software - Restricted
 Rights clause in FAR 52.227-19.
  
 Gaussian, Inc.
 340 Quinnipiac St., Bldg. 40, Wallingford CT 06492
  
  
 ---------------------------------------------------------------
 Warning -- This program may not be used in any manner that
 competes with the business of Gaussian, Inc. or will provide
 assistance to any competitor of Gaussian, Inc.  The licensee
 of this program is prohibited from giving any competitor of
 Gaussian, Inc. access to this program.  By using this program,
 the user acknowledges that Gaussian, Inc. is engaged in the
 business of creating and licensing software in the field of
 computational chemistry and represents and warrants to the
 licensee that it is not a competitor of Gaussian, Inc. and that
 it will not use this program in any manner prohibited above.
 ---------------------------------------------------------------
  

 Cite this work as:
 Gaussian 16, Revision B.01,
 M. J. Frisch, G. W. Trucks, H. B. Schlegel, G. E. Scuseria, 
 M. A. Robb, J. R. Cheeseman, G. Scalmani, V. Barone, 
 G. A. Petersson, H. Nakatsuji, X. Li, M. Caricato, A. V. Marenich, 
 J. Bloino, B. G. Janesko, R. Gomperts, B. Mennucci, H. P. Hratchian, 
 J. V. Ortiz, A. F. Izmaylov, J. L. Sonnenberg, D. Williams-Young, 
 F. Ding, F. Lipparini, F. Egidi, J. Goings, B. Peng, A. Petrone, 
 T. Henderson, D. Ranasinghe, V. G. Zakrzewski, J. Gao, N. Rega, 
 G. Zheng, W. Liang, M. Hada, M. Ehara, K. Toyota, R. Fukuda, 
 J. Hasegawa, M. Ishida, T. Nakajima, Y. Honda, O. Kitao, H. Nakai, 
 T. Vreven, K. Throssell, J. A. Montgomery, Jr., J. E. Peralta, 
 F. Ogliaro, M. J. Bearpark, J. J. Heyd, E. N. Brothers, K. N. Kudin, 
 V. N. Staroverov, T. A. Keith, R. Kobayashi, J. Normand, 
 K. Raghavachari, A. P. Rendell, J. C. Burant, S. S. Iyengar, 
 J. Tomasi, M. Cossi, J. M. Millam, M. Klene, C. Adamo, R. Cammi, 
 J. W. Ochterski, R. L. Martin, K. Morokuma, O. Farkas, 
 J. B. Foresman, and D. J. Fox, Gaussian, Inc., Wallingford CT, 2016.
 
 ******************************************
 Gaussian 16:  ES64L-G16RevB.01 20-Dec-2017
                20-Oct-2019 
 ******************************************
 %nprocshared=2
 Will use up to    2 processors via shared memory.
 %mem=6GB
 %chk=C3.chk
 ------------------------------------------------
 # opt=modredundant b3lyp/3-21g geom=connectivity
 ------------------------------------------------
 1/18=120,19=15,26=3,38=1,57=2/1,3;
 2/9=110,12=2,17=6,18=5,40=1/2;
 3/5=5,11=2,25=1,30=1,71=1,74=-5/1,2,3;
 4//1;
 5/5=2,38=5/2;
 6/7=2,8=2,9=2,10=2,28=1/1;
 7//1,2,3,16;
 1/18=20,19=15,26=3/3(2);
 2/9=110/2;
 99//99;
 2/9=110/2;
 3/5=5,11=2,25=1,30=1,71=1,74=-5/1,2,3;
 4/5=5,16=3,69=1/1;
 5/5=2,38=5/2;
 7//1,2,3,16;
 1/18=20,19=15,26=3/3(-5);
 2/9=110/2;
 6/7=2,8=2,9=2,10=2,19=2,28=1/1;
 99/9=1/99;
 -------------------
 Title Card Required
 -------------------
 Symbolic Z-matrix:
 Charge =  0 Multiplicity = 1
 C                    -0.79369   1.18537  -0.33569 
 C                    -1.11924   0.73143   0.89728 
 C                    -1.11909  -0.73982   0.89047 
 C                    -0.79293  -1.18231  -0.34652 
 H                    -0.72426   2.21635  -0.65178 
 H                    -1.32329   1.33641   1.76992 
 H                    -1.32313  -1.35292   1.75743 
 H                    -0.7233   -2.21038  -0.67191 
 C                    -0.66368   0.00577  -1.28383 
 H                    -1.50946   0.00868  -1.99091 
 H                     0.26287   0.00925  -1.8612 
 C                     1.33655   0.79105   0.0472 
 H                     1.84769   1.23853   1.0734 
 H                     2.2045    1.24206  -0.73138 
 C                     1.33634  -0.79126   0.04501 
 H                     2.20406  -1.24443  -0.73004 
 H                     1.84698  -1.23871   1.0746 
 
 Add virtual bond connecting atoms C12        and C1         Dist= 4.16D+00.
 Add virtual bond connecting atoms C12        and H11        Dist= 4.39D+00.
 Add virtual bond connecting atoms C15        and C4         Dist= 4.16D+00.
 Add virtual bond connecting atoms C15        and H11        Dist= 4.40D+00.
 The following ModRedundant input section has been read:
 B       4      15 F                                                           
 B       1      12 F                                                           
 

 GradGradGradGradGradGradGradGradGradGradGradGradGradGradGradGradGradGrad
 Berny optimization.
 Initialization pass.
                           ----------------------------
                           !    Initial Parameters    !
                           ! (Angstroms and Degrees)  !
 --------------------------                            --------------------------
 ! Name  Definition              Value          Derivative Info.                !
 --------------------------------------------------------------------------------
 ! R1    R(1,2)                  1.3536         estimate D2E/DX2                !
 ! R2    R(1,5)                  1.0806         estimate D2E/DX2                !
 ! R3    R(1,9)                  1.519          estimate D2E/DX2                !
 ! R4    R(1,12)                 2.2            Frozen                          !
 ! R5    R(2,3)                  1.4713         estimate D2E/DX2                !
 ! R6    R(2,6)                  1.0813         estimate D2E/DX2                !
 ! R7    R(3,4)                  1.3536         estimate D2E/DX2                !
 ! R8    R(3,7)                  1.0813         estimate D2E/DX2                !
 ! R9    R(4,8)                  1.0806         estimate D2E/DX2                !
 ! R10   R(4,9)                  1.5188         estimate D2E/DX2                !
 ! R11   R(4,15)                 2.2            Frozen                          !
 ! R12   R(9,10)                 1.1024         estimate D2E/DX2                !
 ! R13   R(9,11)                 1.0917         estimate D2E/DX2                !
 ! R14   R(11,12)                2.3251         estimate D2E/DX2                !
 ! R15   R(11,15)                2.3295         estimate D2E/DX2                !
 ! R16   R(12,13)                1.2307         estimate D2E/DX2                !
 ! R17   R(12,14)                1.2502         estimate D2E/DX2                !
 ! R18   R(12,15)                1.5823         estimate D2E/DX2                !
 ! R19   R(15,16)                1.2486         estimate D2E/DX2                !
 ! R20   R(15,17)                1.2333         estimate D2E/DX2                !
 ! A1    A(2,1,5)              127.0035         estimate D2E/DX2                !
 ! A2    A(2,1,9)              109.191          estimate D2E/DX2                !
 ! A3    A(2,1,12)              90.816          estimate D2E/DX2                !
 ! A4    A(5,1,9)              123.5619         estimate D2E/DX2                !
 ! A5    A(5,1,12)              99.1894         estimate D2E/DX2                !
 ! A6    A(9,1,12)              83.4866         estimate D2E/DX2                !
 ! A7    A(1,2,3)              109.3362         estimate D2E/DX2                !
 ! A8    A(1,2,6)              126.362          estimate D2E/DX2                !
 ! A9    A(3,2,6)              124.281          estimate D2E/DX2                !
 ! A10   A(2,3,4)              109.3381         estimate D2E/DX2                !
 ! A11   A(2,3,7)              124.2827         estimate D2E/DX2                !
 ! A12   A(4,3,7)              126.358          estimate D2E/DX2                !
 ! A13   A(3,4,8)              126.9922         estimate D2E/DX2                !
 ! A14   A(3,4,9)              109.1931         estimate D2E/DX2                !
 ! A15   A(3,4,15)              90.7143         estimate D2E/DX2                !
 ! A16   A(8,4,9)              123.5673         estimate D2E/DX2                !
 ! A17   A(8,4,15)              99.2262         estimate D2E/DX2                !
 ! A18   A(9,4,15)              83.5936         estimate D2E/DX2                !
 ! A19   A(1,9,4)              102.4141         estimate D2E/DX2                !
 ! A20   A(1,9,10)             109.4285         estimate D2E/DX2                !
 ! A21   A(1,9,11)             113.5958         estimate D2E/DX2                !
 ! A22   A(4,9,10)             109.4265         estimate D2E/DX2                !
 ! A23   A(4,9,11)             113.6469         estimate D2E/DX2                !
 ! A24   A(10,9,11)            108.1745         estimate D2E/DX2                !
 ! A25   A(9,11,12)             87.6443         estimate D2E/DX2                !
 ! A26   A(9,11,15)             87.5489         estimate D2E/DX2                !
 ! A27   A(1,12,11)             58.0136         estimate D2E/DX2                !
 ! A28   A(1,12,13)            118.8234         estimate D2E/DX2                !
 ! A29   A(1,12,14)            119.9476         estimate D2E/DX2                !
 ! A30   A(1,12,15)            100.3038         estimate D2E/DX2                !
 ! A31   A(11,12,14)            86.0282         estimate D2E/DX2                !
 ! A32   A(13,12,14)            95.7266         estimate D2E/DX2                !
 ! A33   A(13,12,15)           111.3955         estimate D2E/DX2                !
 ! A34   A(14,12,15)           111.099          estimate D2E/DX2                !
 ! A35   A(4,15,11)             57.9583         estimate D2E/DX2                !
 ! A36   A(4,15,12)            100.2603         estimate D2E/DX2                !
 ! A37   A(4,15,16)            119.8435         estimate D2E/DX2                !
 ! A38   A(4,15,17)            119.0007         estimate D2E/DX2                !
 ! A39   A(11,15,16)            86.3896         estimate D2E/DX2                !
 ! A40   A(12,15,16)           111.328          estimate D2E/DX2                !
 ! A41   A(12,15,17)           111.198          estimate D2E/DX2                !
 ! A42   A(16,15,17)            95.6693         estimate D2E/DX2                !
 ! A43   L(11,12,13,1,-1)      176.8369         estimate D2E/DX2                !
 ! A44   L(11,15,17,4,-1)      176.959          estimate D2E/DX2                !
 ! A45   L(11,12,13,1,-2)      180.3586         estimate D2E/DX2                !
 ! A46   L(11,15,17,4,-2)      180.2251         estimate D2E/DX2                !
 ! D1    D(5,1,2,3)            179.0338         estimate D2E/DX2                !
 ! D2    D(5,1,2,6)             -2.5772         estimate D2E/DX2                !
 ! D3    D(9,1,2,3)              4.5857         estimate D2E/DX2                !
 ! D4    D(9,1,2,6)           -177.0253         estimate D2E/DX2                !
 ! D5    D(12,1,2,3)           -78.8012         estimate D2E/DX2                !
 ! D6    D(12,1,2,6)            99.5878         estimate D2E/DX2                !
 ! D7    D(2,1,9,4)             -6.9373         estimate D2E/DX2                !
 ! D8    D(2,1,9,10)           109.0877         estimate D2E/DX2                !
 ! D9    D(2,1,9,11)          -129.9156         estimate D2E/DX2                !
 ! D10   D(5,1,9,4)            178.3828         estimate D2E/DX2                !
 ! D11   D(5,1,9,10)           -65.5922         estimate D2E/DX2                !
 ! D12   D(5,1,9,11)            55.4045         estimate D2E/DX2                !
 ! D13   D(12,1,9,4)            81.6553         estimate D2E/DX2                !
 ! D14   D(12,1,9,10)         -162.3197         estimate D2E/DX2                !
 ! D15   D(12,1,9,11)          -41.323          estimate D2E/DX2                !
 ! D16   D(2,1,12,11)          128.7951         estimate D2E/DX2                !
 ! D17   D(2,1,12,13)          -51.5635         estimate D2E/DX2                !
 ! D18   D(2,1,12,14)         -168.2097         estimate D2E/DX2                !
 ! D19   D(2,1,12,15)           69.9874         estimate D2E/DX2                !
 ! D20   D(5,1,12,11)         -103.4667         estimate D2E/DX2                !
 ! D21   D(5,1,12,13)           76.1747         estimate D2E/DX2                !
 ! D22   D(5,1,12,14)          -40.4714         estimate D2E/DX2                !
 ! D23   D(5,1,12,15)         -162.2744         estimate D2E/DX2                !
 ! D24   D(9,1,12,11)           19.5712         estimate D2E/DX2                !
 ! D25   D(9,1,12,13)         -160.7874         estimate D2E/DX2                !
 ! D26   D(9,1,12,14)           82.5664         estimate D2E/DX2                !
 ! D27   D(9,1,12,15)          -39.2365         estimate D2E/DX2                !
 ! D28   D(1,2,3,4)              0.024          estimate D2E/DX2                !
 ! D29   D(1,2,3,7)            178.4371         estimate D2E/DX2                !
 ! D30   D(6,2,3,4)           -178.4059         estimate D2E/DX2                !
 ! D31   D(6,2,3,7)              0.0072         estimate D2E/DX2                !
 ! D32   D(2,3,4,8)           -179.0282         estimate D2E/DX2                !
 ! D33   D(2,3,4,9)             -4.6237         estimate D2E/DX2                !
 ! D34   D(2,3,4,15)            78.841          estimate D2E/DX2                !
 ! D35   D(7,3,4,8)              2.6            estimate D2E/DX2                !
 ! D36   D(7,3,4,9)            177.0045         estimate D2E/DX2                !
 ! D37   D(7,3,4,15)           -99.5308         estimate D2E/DX2                !
 ! D38   D(3,4,9,1)              6.9522         estimate D2E/DX2                !
 ! D39   D(3,4,9,10)          -109.0743         estimate D2E/DX2                !
 ! D40   D(3,4,9,11)           129.8961         estimate D2E/DX2                !
 ! D41   D(8,4,9,1)           -178.4109         estimate D2E/DX2                !
 ! D42   D(8,4,9,10)            65.5627         estimate D2E/DX2                !
 ! D43   D(8,4,9,11)           -55.4669         estimate D2E/DX2                !
 ! D44   D(15,4,9,1)           -81.5694         estimate D2E/DX2                !
 ! D45   D(15,4,9,10)          162.4042         estimate D2E/DX2                !
 ! D46   D(15,4,9,11)           41.3746         estimate D2E/DX2                !
 ! D47   D(3,4,15,11)         -128.7923         estimate D2E/DX2                !
 ! D48   D(3,4,15,12)          -70.3826         estimate D2E/DX2                !
 ! D49   D(3,4,15,16)          167.6135         estimate D2E/DX2                !
 ! D50   D(3,4,15,17)           50.9826         estimate D2E/DX2                !
 ! D51   D(8,4,15,11)          103.4978         estimate D2E/DX2                !
 ! D52   D(8,4,15,12)          161.9074         estimate D2E/DX2                !
 ! D53   D(8,4,15,16)           39.9035         estimate D2E/DX2                !
 ! D54   D(8,4,15,17)          -76.7274         estimate D2E/DX2                !
 ! D55   D(9,4,15,11)          -19.5573         estimate D2E/DX2                !
 ! D56   D(9,4,15,12)           38.8524         estimate D2E/DX2                !
 ! D57   D(9,4,15,16)          -83.1515         estimate D2E/DX2                !
 ! D58   D(9,4,15,17)          160.2176         estimate D2E/DX2                !
 ! D59   D(1,9,11,12)           38.4093         estimate D2E/DX2                !
 ! D60   D(1,9,11,15)           78.1927         estimate D2E/DX2                !
 ! D61   D(4,9,11,12)          -78.1647         estimate D2E/DX2                !
 ! D62   D(4,9,11,15)          -38.3813         estimate D2E/DX2                !
 ! D63   D(10,9,11,12)         160.1068         estimate D2E/DX2                !
 ! D64   D(10,9,11,15)        -160.1098         estimate D2E/DX2                !
 ! D65   D(9,11,12,1)          -27.6106         estimate D2E/DX2                !
 ! D66   D(9,11,12,14)        -156.9081         estimate D2E/DX2                !
 ! D67   D(9,11,15,4)           27.595          estimate D2E/DX2                !
 ! D68   D(9,11,15,16)         156.4774         estimate D2E/DX2                !
 ! D69   D(1,12,15,4)            0.2018         estimate D2E/DX2                !
 ! D70   D(1,12,15,16)         128.0505         estimate D2E/DX2                !
 ! D71   D(1,12,15,17)        -126.5722         estimate D2E/DX2                !
 ! D72   D(13,12,15,4)         126.8938         estimate D2E/DX2                !
 ! D73   D(13,12,15,16)       -105.2576         estimate D2E/DX2                !
 ! D74   D(13,12,15,17)          0.1197         estimate D2E/DX2                !
 ! D75   D(14,12,15,4)        -127.6772         estimate D2E/DX2                !
 ! D76   D(14,12,15,16)          0.1715         estimate D2E/DX2                !
 ! D77   D(14,12,15,17)        105.5488         estimate D2E/DX2                !
 --------------------------------------------------------------------------------
 Trust Radius=3.00D-01 FncErr=1.00D-07 GrdErr=1.00D-06 EigMax=2.50D+02 EigMin=1.00D-04
 Number of steps in this run=    102 maximum allowed number of steps=    102.
 GradGradGradGradGradGradGradGradGradGradGradGradGradGradGradGradGradGrad

                          Input orientation:                          
 ---------------------------------------------------------------------
 Center     Atomic      Atomic             Coordinates (Angstroms)
 Number     Number       Type             X           Y           Z
 ---------------------------------------------------------------------
      1          6           0       -0.793692    1.185372   -0.335690
      2          6           0       -1.119238    0.731433    0.897277
      3          6           0       -1.119089   -0.739821    0.890465
      4          6           0       -0.792932   -1.182308   -0.346523
      5          1           0       -0.724258    2.216348   -0.651778
      6          1           0       -1.323294    1.336406    1.769924
      7          1           0       -1.323127   -1.352915    1.757429
      8          1           0       -0.723300   -2.210380   -0.671910
      9          6           0       -0.663676    0.005770   -1.283827
     10          1           0       -1.509459    0.008682   -1.990906
     11          1           0        0.262871    0.009247   -1.861203
     12          6           0        1.336546    0.791055    0.047196
     13          1           0        1.847686    1.238528    1.073403
     14          1           0        2.204501    1.242055   -0.731379
     15          6           0        1.336338   -0.791264    0.045006
     16          1           0        2.204064   -1.244430   -0.730043
     17          1           0        1.846983   -1.238710    1.074604
 ---------------------------------------------------------------------
                    Distance matrix (angstroms):
                    1          2          3          4          5
     1  C    0.000000
     2  C    1.353606   0.000000
     3  C    2.305582   1.471270   0.000000
     4  C    2.367705   2.305628   1.353629   0.000000
     5  H    1.080576   2.181869   3.357580   3.413028   0.000000
     6  H    2.176442   1.081270   2.264038   3.332349   2.645332
     7  H    3.332319   2.264054   1.081269   2.176425   4.347708
     8  H    3.413082   3.357585   2.181790   1.080582   4.426774
     9  C    1.518989   2.343360   2.343257   1.518807   2.299959
    10  H    2.153291   3.002706   3.002490   2.153106   2.698813
    11  H    2.196995   3.168752   3.169005   2.197448   2.703410
    12  C    2.200000   2.599435   3.014104   2.929821   2.601334
    13  H    2.994202   3.015096   3.570586   3.853505   3.247657
    14  H    3.024722   3.736375   4.195767   3.874307   3.087590
    15  C    2.930708   3.012445   2.597415   2.200000   3.711778
    16  H    3.878916   4.194823   3.731491   3.022074   4.534113
    17  H    3.852047   3.565302   3.013367   2.998655   4.639946
                    6          7          8          9         10
     6  H    0.000000
     7  H    2.689350   0.000000
     8  H    4.347670   2.645133   0.000000
     9  C    3.395745   3.395606   2.299852   0.000000
    10  H    3.992662   3.992328   2.698524   1.102415   0.000000
    11  H    4.178798   4.179159   2.704384   1.091725   1.777070
    12  C    3.215578   3.820387   3.710618   2.527683   3.586880
    13  H    3.248051   4.151810   4.642311   3.658301   4.708814
    14  H    4.325593   5.037082   4.527125   3.171756   4.111097
    15  C    3.817848   3.212568   2.601916   2.530043   3.589347
    16  H    5.035157   4.317449   3.083164   3.177044   4.117076
    17  H    4.143109   3.244825   3.255888   3.662559   4.713708
                   11         12         13         14         15
    11  H    0.000000
    12  C    2.325078   0.000000
    13  H    3.554530   1.230690   0.000000
    14  H    2.562469   1.250171   1.839719   0.000000
    15  C    2.329546   1.582320   2.332195   2.343260   0.000000
    16  H    2.572831   2.345184   3.089418   2.486485   1.248603
    17  H    3.561709   2.331535   2.477238   3.089270   1.233304
                   16         17
    16  H    0.000000
    17  H    1.839644   0.000000
 Stoichiometry    C7H10
 Framework group  C1[X(C7H10)]
 Deg. of freedom    45
 Full point group                 C1      NOp   1
 Largest Abelian subgroup         C1      NOp   1
 Largest concise Abelian subgroup C1      NOp   1
                         Standard orientation:                         
 ---------------------------------------------------------------------
 Center     Atomic      Atomic             Coordinates (Angstroms)
 Number     Number       Type             X           Y           Z
 ---------------------------------------------------------------------
      1          6           0       -0.596356   -1.185131    0.381075
      2          6           0       -1.063886   -0.733003   -0.806041
      3          6           0       -1.063849    0.738258   -0.801181
      4          6           0       -0.595795    1.182561    0.388707
      5          1           0       -0.489863   -2.215649    0.688220
      6          1           0       -1.368042   -1.339245   -1.648124
      7          1           0       -1.368075    1.350090   -1.639185
      8          1           0       -0.489289    2.211102    0.702421
      9          6           0       -0.357275   -0.004194    1.306038
     10          1           0       -1.114733   -0.006545    2.107019
     11          1           0        0.630339   -0.006465    1.771310
     12          6           0        1.474378   -0.790346   -0.248373
     13          1           0        1.862506   -1.238964   -1.326656
     14          1           0        2.427564   -1.239896    0.424137
     15          6           0        1.473452    0.791974   -0.248204
     16          1           0        2.425442    1.246584    0.419670
     17          1           0        1.860141    1.238270   -1.330946
 ---------------------------------------------------------------------
 Rotational constants (GHZ):           3.6008684           2.9230001           2.5877667
 Standard basis: 3-21G (6D, 7F)
 There are    83 symmetry adapted cartesian basis functions of A   symmetry.
 There are    83 symmetry adapted basis functions of A   symmetry.
    83 basis functions,   135 primitive gaussians,    83 cartesian basis functions
    26 alpha electrons       26 beta electrons
       nuclear repulsion energy       291.7234093531 Hartrees.
 NAtoms=   17 NActive=   17 NUniq=   17 SFac= 1.00D+00 NAtFMM=   60 NAOKFM=F Big=F
 Integral buffers will be    131072 words long.
 Raffenetti 2 integral format.
 Two-electron integral symmetry is turned on.
 One-electron integrals computed using PRISM.
 NBasis=    83 RedAO= T EigKep=  4.33D-03  NBF=    83
 NBsUse=    83 1.00D-06 EigRej= -1.00D+00 NBFU=    83
 ExpMin= 1.83D-01 ExpMax= 1.72D+02 ExpMxC= 1.72D+02 IAcc=3 IRadAn=         5 AccDes= 0.00D+00
 Harris functional with IExCor=  402 and IRadAn=       5 diagonalized for initial guess.
 HarFok:  IExCor=  402 AccDes= 0.00D+00 IRadAn=         5 IDoV= 1 UseB2=F ITyADJ=14
 ICtDFT=  3500011 ScaDFX=  1.000000  1.000000  1.000000  1.000000
 FoFCou: FMM=F IPFlag=           0 FMFlag=      100000 FMFlg1=           0
         NFxFlg=           0 DoJE=T BraDBF=F KetDBF=T FulRan=T
         wScrn=  0.000000 ICntrl=       500 IOpCl=  0 I1Cent=   200000004 NGrid=           0
         NMat0=    1 NMatS0=      1 NMatT0=    0 NMatD0=    1 NMtDS0=    0 NMtDT0=    0
 Petite list used in FoFCou.
 Keep R1 ints in memory in canonical form, NReq=7891734.
 Requested convergence on RMS density matrix=1.00D-08 within 128 cycles.
 Requested convergence on MAX density matrix=1.00D-06.
 Requested convergence on             energy=1.00D-06.
 No special actions if energy rises.
 Integral accuracy reduced to 1.0D-05 until final iterations.
 Initial convergence to 1.0D-05 achieved.  Increase integral accuracy.
 SCF Done:  E(RB3LYP) =  -271.055109741     A.U. after   14 cycles
            NFock= 14  Conv=0.89D-08     -V/T= 2.0114

 **********************************************************************

            Population analysis using the SCF Density.

 **********************************************************************

 Orbital symmetries:
       Occupied  (A) (A) (A) (A) (A) (A) (A) (A) (A) (A) (A) (A)
                 (A) (A) (A) (A) (A) (A) (A) (A) (A) (A) (A) (A)
                 (A) (A)
       Virtual   (A) (A) (A) (A) (A) (A) (A) (A) (A) (A) (A) (A)
                 (A) (A) (A) (A) (A) (A) (A) (A) (A) (A) (A) (A)
                 (A) (A) (A) (A) (A) (A) (A) (A) (A) (A) (A) (A)
                 (A) (A) (A) (A) (A) (A) (A) (A) (A) (A) (A) (A)
                 (A) (A) (A) (A) (A) (A) (A) (A) (A)
 The electronic state is 1-A.
 Alpha  occ. eigenvalues --  -10.14591 -10.14538 -10.13773 -10.13693 -10.12688
 Alpha  occ. eigenvalues --  -10.12587 -10.12474  -0.87429  -0.72415  -0.70981
 Alpha  occ. eigenvalues --   -0.68022  -0.55877  -0.54157  -0.52363  -0.52109
 Alpha  occ. eigenvalues --   -0.45289  -0.41318  -0.38497  -0.37921  -0.36659
 Alpha  occ. eigenvalues --   -0.36561  -0.34378  -0.30371  -0.28107  -0.25936
 Alpha  occ. eigenvalues --   -0.18552
 Alpha virt. eigenvalues --   -0.02465   0.00605   0.09976   0.11028   0.11388
 Alpha virt. eigenvalues --    0.13673   0.17265   0.18610   0.18714   0.18861
 Alpha virt. eigenvalues --    0.19184   0.20445   0.21168   0.22565   0.25089
 Alpha virt. eigenvalues --    0.26893   0.37380   0.39721   0.46342   0.67579
 Alpha virt. eigenvalues --    0.68487   0.71830   0.72146   0.72962   0.75436
 Alpha virt. eigenvalues --    0.76092   0.79857   0.80173   0.81589   0.83606
 Alpha virt. eigenvalues --    0.88644   0.89387   0.92871   0.96232   0.96454
 Alpha virt. eigenvalues --    0.97501   0.98697   1.00674   1.02241   1.04309
 Alpha virt. eigenvalues --    1.05295   1.05761   1.07614   1.10437   1.11403
 Alpha virt. eigenvalues --    1.14887   1.23118   1.32425   1.35922   1.41708
 Alpha virt. eigenvalues --    1.43478   1.75932   1.84671   1.91837   2.14142
 Alpha virt. eigenvalues --    2.19342   2.35326
          Condensed to atoms (all electrons):
               1          2          3          4          5          6
     1  C    5.327040   0.408207  -0.104551  -0.116653   0.394520  -0.039493
     2  C    0.408207   5.204147   0.480429  -0.104564  -0.034524   0.391212
     3  C   -0.104551   0.480429   5.204189   0.408086   0.003904  -0.029362
     4  C   -0.116653  -0.104564   0.408086   5.327380   0.002831   0.003451
     5  H    0.394520  -0.034524   0.003904   0.002831   0.469228  -0.002031
     6  H   -0.039493   0.391212  -0.029362   0.003451  -0.002031   0.489471
     7  H    0.003451  -0.029338   0.391191  -0.039497  -0.000045  -0.000910
     8  H    0.002833   0.003902  -0.034512   0.394497  -0.000025  -0.000045
     9  C    0.318865  -0.125764  -0.125814   0.318735  -0.027656   0.004421
    10  H   -0.041796   0.003556   0.003545  -0.041747  -0.000891  -0.000107
    11  H   -0.033583   0.003663   0.003666  -0.033500  -0.000363  -0.000067
    12  C    0.102936  -0.046895  -0.022906  -0.024956  -0.007373  -0.000347
    13  H   -0.006070  -0.002449   0.000444   0.000715   0.000010   0.000132
    14  H   -0.002853   0.000528   0.000355   0.000918   0.000181  -0.000000
    15  C   -0.024887  -0.023020  -0.047190   0.102968   0.000060  -0.000091
    16  H    0.000914   0.000355   0.000524  -0.002911  -0.000000   0.000000
    17  H    0.000709   0.000441  -0.002443  -0.006003  -0.000001   0.000003
               7          8          9         10         11         12
     1  C    0.003451   0.002833   0.318865  -0.041796  -0.033583   0.102936
     2  C   -0.029338   0.003902  -0.125764   0.003556   0.003663  -0.046895
     3  C    0.391191  -0.034512  -0.125814   0.003545   0.003666  -0.022906
     4  C   -0.039497   0.394497   0.318735  -0.041747  -0.033500  -0.024956
     5  H   -0.000045  -0.000025  -0.027656  -0.000891  -0.000363  -0.007373
     6  H   -0.000910  -0.000045   0.004421  -0.000107  -0.000067  -0.000347
     7  H    0.489370  -0.002030   0.004421  -0.000107  -0.000067  -0.000091
     8  H   -0.002030   0.469218  -0.027665  -0.000891  -0.000364   0.000059
     9  C    0.004421  -0.027665   5.442488   0.338803   0.382072  -0.054549
    10  H   -0.000107  -0.000891   0.338803   0.553512  -0.025140   0.004113
    11  H   -0.000067  -0.000364   0.382072  -0.025140   0.482848  -0.012355
    12  C   -0.000091   0.000059  -0.054549   0.004113  -0.012355   5.473504
    13  H    0.000003  -0.000001   0.000976  -0.000021   0.000269   0.345611
    14  H    0.000000  -0.000000  -0.001474  -0.000015   0.000715   0.331924
    15  C   -0.000353  -0.007367  -0.054092   0.004082  -0.012346   0.343077
    16  H   -0.000000   0.000184  -0.001401  -0.000015   0.000676  -0.034547
    17  H    0.000134   0.000009   0.000964  -0.000021   0.000268  -0.035313
              13         14         15         16         17
     1  C   -0.006070  -0.002853  -0.024887   0.000914   0.000709
     2  C   -0.002449   0.000528  -0.023020   0.000355   0.000441
     3  C    0.000444   0.000355  -0.047190   0.000524  -0.002443
     4  C    0.000715   0.000918   0.102968  -0.002911  -0.006003
     5  H    0.000010   0.000181   0.000060  -0.000000  -0.000001
     6  H    0.000132  -0.000000  -0.000091   0.000000   0.000003
     7  H    0.000003   0.000000  -0.000353  -0.000000   0.000134
     8  H   -0.000001  -0.000000  -0.007367   0.000184   0.000009
     9  C    0.000976  -0.001474  -0.054092  -0.001401   0.000964
    10  H   -0.000021  -0.000015   0.004082  -0.000015  -0.000021
    11  H    0.000269   0.000715  -0.012346   0.000676   0.000268
    12  C    0.345611   0.331924   0.343077  -0.034547  -0.035313
    13  H    0.607933  -0.048594  -0.035124   0.003296  -0.005172
    14  H   -0.048594   0.623584  -0.034804  -0.004122   0.003326
    15  C   -0.035124  -0.034804   5.473198   0.332073   0.345251
    16  H    0.003296  -0.004122   0.332073   0.622306  -0.048630
    17  H   -0.005172   0.003326   0.345251  -0.048630   0.609468
 Mulliken charges:
               1
     1  C   -0.189589
     2  C   -0.129888
     3  C   -0.129554
     4  C   -0.189750
     5  H    0.202175
     6  H    0.183764
     7  H    0.183870
     8  H    0.202199
     9  C   -0.393331
    10  H    0.203140
    11  H    0.243608
    12  C   -0.361891
    13  H    0.138043
    14  H    0.130332
    15  C   -0.361435
    16  H    0.131299
    17  H    0.137009
 Sum of Mulliken charges =   0.00000
 Mulliken charges with hydrogens summed into heavy atoms:
               1
     1  C    0.012586
     2  C    0.053876
     3  C    0.054316
     4  C    0.012449
     9  C    0.053417
    12  C   -0.093516
    15  C   -0.093128
 Electronic spatial extent (au):  <R**2>=            660.3524
 Charge=              0.0000 electrons
 Dipole moment (field-independent basis, Debye):
    X=             -0.6088    Y=              0.0029    Z=              0.3498  Tot=              0.7021
 Quadrupole moment (field-independent basis, Debye-Ang):
   XX=            -45.5462   YY=            -41.9379   ZZ=            -41.8950
   XY=              0.0003   XZ=              0.9865   YZ=              0.0114
 Traceless Quadrupole moment (field-independent basis, Debye-Ang):
   XX=             -2.4198   YY=              1.1885   ZZ=              1.2313
   XY=              0.0003   XZ=              0.9865   YZ=              0.0114
 Octapole moment (field-independent basis, Debye-Ang**2):
  XXX=              4.9441  YYY=             -0.0022  ZZZ=             -0.9141  XYY=             -4.7265
  XXY=              0.0307  XXZ=             -1.0811  XZZ=             -3.6629  YZZ=             -0.0006
  YYZ=              0.5568  XYZ=              0.0169
 Hexadecapole moment (field-independent basis, Debye-Ang**3):
 XXXX=           -407.5272 YYYY=           -272.0391 ZZZZ=           -219.8277 XXXY=              0.0376
 XXXZ=              3.4371 YYYX=             -0.0077 YYYZ=              0.0717 ZZZX=              4.8074
 ZZZY=              0.0434 XXYY=           -112.7075 XXZZ=            -97.0791 YYZZ=            -80.1998
 XXYZ=              0.0072 YYXZ=              2.5273 ZZXY=             -0.0165
 N-N= 2.917234093531D+02 E-N=-1.209912789595D+03  KE= 2.680067822587D+02
 Calling FoFJK, ICntrl=      2127 FMM=F ISym2X=0 I1Cent= 0 IOpClX= 0 NMat=1 NMatS=1 NMatT=0.
 ***** Axes restored to original set *****
 -------------------------------------------------------------------
 Center     Atomic                   Forces (Hartrees/Bohr)
 Number     Number              X              Y              Z
 -------------------------------------------------------------------
      1        6           0.068389736    0.007095627   -0.026159025
      2        6          -0.032676135   -0.058286046    0.042357770
      3        6          -0.032667007    0.057955472    0.042912444
      4        6           0.068297808   -0.006911214   -0.026086544
      5        1          -0.005840631   -0.000909001   -0.001454547
      6        1           0.001719370   -0.000850004   -0.000119597
      7        1           0.001734525    0.000846443   -0.000111305
      8        1          -0.005824594    0.000917040   -0.001442607
      9        6          -0.030638884    0.000155621   -0.029333133
     10        1          -0.003987151   -0.000026389   -0.000887796
     11        1          -0.008145164   -0.000068883   -0.002156190
     12        6           0.092347773   -0.015953808    0.019276313
     13        1          -0.044976946   -0.020151021   -0.037803063
     14        1          -0.057467149   -0.022597797    0.019581517
     15        6           0.092235973    0.015795101    0.020702237
     16        1          -0.057246893    0.022913251    0.019147378
     17        1          -0.045254632    0.020075606   -0.038423853
 -------------------------------------------------------------------
 Cartesian Forces:  Max     0.092347773 RMS     0.034239678

 GradGradGradGradGradGradGradGradGradGradGradGradGradGradGradGradGradGrad
 Berny optimization.
 FormGI is forming the generalized inverse of G from B-inverse, IUseBI=4.
 Internal  Forces:  Max     0.060244623 RMS     0.013830740
 Search for a local minimum.
 Step number   1 out of a maximum of  102
 All quantities printed in internal units (Hartrees-Bohrs-Radians)
 Mixed Optimization -- RFO/linear search
 Second derivative matrix not updated -- first step.
 ITU=  0
     Eigenvalues ---    0.00880   0.01913   0.02269   0.02326   0.02381
     Eigenvalues ---    0.02589   0.02735   0.03147   0.03150   0.03409
     Eigenvalues ---    0.04264   0.04449   0.04594   0.05311   0.05402
     Eigenvalues ---    0.05584   0.06311   0.06327   0.06648   0.06923
     Eigenvalues ---    0.07032   0.07918   0.12258   0.13046   0.14179
     Eigenvalues ---    0.15986   0.15992   0.20037   0.21338   0.21432
     Eigenvalues ---    0.21808   0.22386   0.22554   0.25203   0.28428
     Eigenvalues ---    0.32638   0.33416   0.35841   0.35841   0.35924
     Eigenvalues ---    0.35925   0.45251   0.529781000.000001000.00000
     Eigenvalues --- 1000.000001000.000001000.000001000.000001000.00000
     Eigenvalues --- 1000.000001000.000001000.000001000.000001000.00000
     Eigenvalues --- 1000.000001000.000001000.000001000.000001000.00000
     Eigenvalues --- 1000.000001000.000001000.000001000.000001000.00000
     Eigenvalues --- 1000.000001000.000001000.000001000.000001000.00000
     Eigenvalues --- 1000.000001000.000001000.000001000.000001000.00000
     Eigenvalues --- 1000.000001000.000001000.000001000.000001000.00000
     Eigenvalues --- 1000.000001000.000001000.000001000.000001000.00000
     Eigenvalues --- 1000.000001000.000001000.000001000.000001000.00000
     Eigenvalues --- 1000.000001000.000001000.000001000.000001000.00000
     Eigenvalues --- 1000.000001000.000001000.000001000.000001000.00000
     Eigenvalues --- 1000.000001000.000001000.000001000.000001000.00000
     Eigenvalues --- 1000.000001000.000001000.000001000.000001000.00000
     Eigenvalues --- 1000.000001000.000001000.000001000.000001000.00000
     Eigenvalues --- 1000.000001000.000001000.000001000.000001000.00000
     Eigenvalues --- 1000.000001000.000001000.000001000.000001000.00000
     Eigenvalues --- 1000.000001000.000001000.000001000.000001000.00000
     Eigenvalues --- 1000.000001000.000001000.000001000.000001000.00000
     Eigenvalues --- 1000.000001000.000001000.000001000.000001000.00000
     Eigenvalues --- 1000.000001000.000001000.00000
 RFO step:  Lambda=-8.87364016D-02 EMin= 8.79856077D-03
 Linear search not attempted -- first point.
 Maximum step size (   0.300) exceeded in Quadratic search.
    -- Step size scaled by   0.597
 Iteration  1 RMS(Cart)=  0.02512531 RMS(Int)=  0.00073616
 Iteration  2 RMS(Cart)=  0.00064640 RMS(Int)=  0.00015124
 Iteration  3 RMS(Cart)=  0.00000050 RMS(Int)=  0.00015124
 Iteration  1 RMS(Cart)=  0.00001291 RMS(Int)=  0.00000407
 Iteration  2 RMS(Cart)=  0.00000205 RMS(Int)=  0.00000433
 Iteration  3 RMS(Cart)=  0.00000032 RMS(Int)=  0.00000442
 Variable       Old X    -DE/DX   Delta X   Delta X   Delta X     New X
                                 (Linear)    (Quad)   (Total)
    R1        2.55794   0.05000   0.00000   0.04762   0.04768   2.60562
    R2        2.04199  -0.00082   0.00000  -0.00109  -0.00109   2.04090
    R3        2.87047  -0.00067   0.00000  -0.00031  -0.00032   2.87015
    R4        4.15740  -0.00991   0.00000   0.00000  -0.00000   4.15740
    R5        2.78030  -0.04760   0.00000  -0.06247  -0.06228   2.71802
    R6        2.04330  -0.00090   0.00000  -0.00120  -0.00120   2.04211
    R7        2.55799   0.05002   0.00000   0.04765   0.04771   2.60570
    R8        2.04330  -0.00090   0.00000  -0.00120  -0.00120   2.04211
    R9        2.04200  -0.00081   0.00000  -0.00108  -0.00108   2.04092
   R10        2.87013  -0.00061   0.00000  -0.00028  -0.00029   2.86984
   R11        4.15740  -0.00994   0.00000   0.00000  -0.00000   4.15740
   R12        2.08326   0.00363   0.00000   0.00512   0.00512   2.08838
   R13        2.06306  -0.00687   0.00000  -0.00681  -0.00677   2.05629
   R14        4.39376  -0.00004   0.00000   0.02618   0.02629   4.42005
   R15        4.40220  -0.00018   0.00000   0.02585   0.02595   4.42815
   R16        2.32567  -0.05753   0.00000  -0.10929  -0.10929   2.21637
   R17        2.36248  -0.06024   0.00000  -0.11906  -0.11906   2.24342
   R18        2.99015  -0.04775   0.00000  -0.09871  -0.09903   2.89113
   R19        2.35952  -0.05999   0.00000  -0.11818  -0.11818   2.24134
   R20        2.33061  -0.05810   0.00000  -0.11097  -0.11097   2.21964
    A1        2.21663  -0.00217   0.00000  -0.00492  -0.00516   2.21147
    A2        1.90574   0.00377   0.00000   0.00707   0.00649   1.91223
    A3        1.58504   0.00439   0.00000   0.02462   0.02454   1.60958
    A4        2.15656  -0.00244   0.00000  -0.00621  -0.00636   2.15020
    A5        1.73118   0.00304   0.00000   0.00548   0.00543   1.73661
    A6        1.45712   0.00133   0.00000   0.01214   0.01228   1.46939
    A7        1.90828  -0.00042   0.00000  -0.00123  -0.00145   1.90683
    A8        2.20543   0.00061   0.00000   0.00142   0.00148   2.20691
    A9        2.16911  -0.00030   0.00000  -0.00061  -0.00056   2.16855
   A10        1.90831  -0.00044   0.00000  -0.00124  -0.00146   1.90685
   A11        2.16914  -0.00028   0.00000  -0.00059  -0.00054   2.16860
   A12        2.20536   0.00061   0.00000   0.00142   0.00147   2.20683
   A13        2.21643  -0.00214   0.00000  -0.00484  -0.00508   2.21135
   A14        1.90578   0.00376   0.00000   0.00706   0.00648   1.91225
   A15        1.58326   0.00439   0.00000   0.02458   0.02450   1.60776
   A16        2.15666  -0.00247   0.00000  -0.00630  -0.00644   2.15021
   A17        1.73182   0.00305   0.00000   0.00550   0.00545   1.73728
   A18        1.45898   0.00130   0.00000   0.01203   0.01217   1.47116
   A19        1.78746  -0.00865   0.00000  -0.02026  -0.02065   1.76681
   A20        1.90989   0.00633   0.00000   0.01776   0.01782   1.92771
   A21        1.98262  -0.00034   0.00000  -0.00782  -0.00792   1.97470
   A22        1.90985   0.00632   0.00000   0.01766   0.01772   1.92758
   A23        1.98351  -0.00033   0.00000  -0.00780  -0.00790   1.97561
   A24        1.88800  -0.00275   0.00000   0.00177   0.00181   1.88981
   A25        1.52968  -0.00118   0.00000   0.00477   0.00484   1.53452
   A26        1.52802  -0.00117   0.00000   0.00477   0.00485   1.53286
   A27        1.01253  -0.00053   0.00000  -0.00793  -0.00796   1.00456
   A28        2.07386  -0.00902   0.00000  -0.03590  -0.03591   2.03795
   A29        2.09348  -0.00953   0.00000  -0.03251  -0.03253   2.06095
   A30        1.75063   0.00421   0.00000   0.00748   0.00740   1.75803
   A31        1.50148  -0.00781   0.00000  -0.02146  -0.02163   1.47985
   A32        1.67074   0.01274   0.00000   0.04804   0.04750   1.71825
   A33        1.94422  -0.00062   0.00000   0.00520   0.00509   1.94931
   A34        1.93904   0.00228   0.00000   0.00949   0.00952   1.94856
   A35        1.01156  -0.00049   0.00000  -0.00786  -0.00790   1.00367
   A36        1.74987   0.00428   0.00000   0.00764   0.00756   1.75743
   A37        2.09166  -0.00948   0.00000  -0.03227  -0.03229   2.05938
   A38        2.07695  -0.00915   0.00000  -0.03640  -0.03641   2.04054
   A39        1.50778  -0.00784   0.00000  -0.02161  -0.02178   1.48601
   A40        1.94304   0.00211   0.00000   0.00886   0.00888   1.95192
   A41        1.94077  -0.00050   0.00000   0.00576   0.00566   1.94643
   A42        1.66974   0.01279   0.00000   0.04819   0.04765   1.71739
   A43        3.08639  -0.00955   0.00000  -0.04383  -0.04388   3.04251
   A44        3.08852  -0.00964   0.00000  -0.04426  -0.04431   3.04421
   A45        3.14785   0.00118   0.00000   0.00004  -0.00004   3.14781
   A46        3.14552  -0.00128   0.00000  -0.00054  -0.00046   3.14506
    D1        3.12473  -0.00081   0.00000  -0.00832  -0.00816   3.11657
    D2       -0.04498  -0.00509   0.00000  -0.02421  -0.02413  -0.06911
    D3        0.08004   0.00889   0.00000   0.03805   0.03827   0.11830
    D4       -3.08967   0.00461   0.00000   0.02216   0.02230  -3.06737
    D5       -1.37534   0.00605   0.00000   0.01679   0.01671  -1.35863
    D6        1.73814   0.00177   0.00000   0.00090   0.00074   1.73887
    D7       -0.12108  -0.01280   0.00000  -0.05600  -0.05575  -0.17683
    D8        1.90394  -0.00729   0.00000  -0.03859  -0.03865   1.86529
    D9       -2.26745  -0.00647   0.00000  -0.02878  -0.02883  -2.29628
   D10        3.11337  -0.00351   0.00000  -0.01162  -0.01133   3.10204
   D11       -1.14480   0.00201   0.00000   0.00580   0.00577  -1.13903
   D12        0.96699   0.00282   0.00000   0.01561   0.01560   0.98259
   D13        1.42515  -0.00812   0.00000  -0.02636  -0.02598   1.39917
   D14       -2.83301  -0.00260   0.00000  -0.00895  -0.00888  -2.84189
   D15       -0.72122  -0.00179   0.00000   0.00086   0.00094  -0.72028
   D16        2.24790   0.00297   0.00000   0.00330   0.00316   2.25106
   D17       -0.89995   0.00178   0.00000   0.00326   0.00320  -0.89676
   D18       -2.93581   0.00003   0.00000  -0.00471  -0.00483  -2.94064
   D19        1.22151  -0.00079   0.00000  -0.00428  -0.00435   1.21716
   D20       -1.80583   0.00212   0.00000   0.00436   0.00435  -1.80148
   D21        1.32950   0.00094   0.00000   0.00432   0.00439   1.33389
   D22       -0.70636  -0.00081   0.00000  -0.00366  -0.00364  -0.71000
   D23       -2.83222  -0.00163   0.00000  -0.00322  -0.00317  -2.83539
   D24        0.34158  -0.00029   0.00000  -0.00066  -0.00067   0.34091
   D25       -2.80627  -0.00147   0.00000  -0.00071  -0.00063  -2.80690
   D26        1.44106  -0.00322   0.00000  -0.00868  -0.00866   1.43240
   D27       -0.68481  -0.00404   0.00000  -0.00825  -0.00818  -0.69299
   D28        0.00042  -0.00002   0.00000  -0.00008  -0.00008   0.00034
   D29        3.11432  -0.00417   0.00000  -0.01548  -0.01554   3.09878
   D30       -3.11377   0.00413   0.00000   0.01536   0.01542  -3.09835
   D31        0.00013  -0.00001   0.00000  -0.00004  -0.00004   0.00008
   D32       -3.12463   0.00080   0.00000   0.00831   0.00815  -3.11648
   D33       -0.08070  -0.00887   0.00000  -0.03793  -0.03815  -0.11885
   D34        1.37603  -0.00607   0.00000  -0.01680  -0.01672   1.35931
   D35        0.04538   0.00507   0.00000   0.02415   0.02407   0.06945
   D36        3.08931  -0.00460   0.00000  -0.02209  -0.02223   3.06708
   D37       -1.73714  -0.00180   0.00000  -0.00096  -0.00080  -1.73794
   D38        0.12134   0.01279   0.00000   0.05595   0.05570   0.17704
   D39       -1.90370   0.00726   0.00000   0.03846   0.03852  -1.86518
   D40        2.26711   0.00644   0.00000   0.02869   0.02873   2.29585
   D41       -3.11386   0.00352   0.00000   0.01169   0.01140  -3.10245
   D42        1.14429  -0.00201   0.00000  -0.00579  -0.00577   1.13851
   D43       -0.96808  -0.00282   0.00000  -0.01557  -0.01556  -0.98364
   D44       -1.42365   0.00811   0.00000   0.02638   0.02601  -1.39765
   D45        2.83449   0.00258   0.00000   0.00890   0.00883   2.84332
   D46        0.72212   0.00177   0.00000  -0.00088  -0.00096   0.72116
   D47       -2.24785  -0.00296   0.00000  -0.00333  -0.00318  -2.25103
   D48       -1.22841   0.00074   0.00000   0.00413   0.00421  -1.22420
   D49        2.92541   0.00008   0.00000   0.00516   0.00527   2.93068
   D50        0.88981  -0.00167   0.00000  -0.00278  -0.00272   0.88709
   D51        1.80638  -0.00214   0.00000  -0.00444  -0.00442   1.80195
   D52        2.82582   0.00156   0.00000   0.00302   0.00296   2.82878
   D53        0.69645   0.00089   0.00000   0.00405   0.00403   0.70048
   D54       -1.33915  -0.00086   0.00000  -0.00389  -0.00396  -1.34311
   D55       -0.34134   0.00029   0.00000   0.00065   0.00066  -0.34068
   D56        0.67810   0.00400   0.00000   0.00811   0.00804   0.68614
   D57       -1.45127   0.00333   0.00000   0.00913   0.00911  -1.44216
   D58        2.79632   0.00158   0.00000   0.00119   0.00112   2.79744
   D59        0.67037  -0.00011   0.00000  -0.00456  -0.00465   0.66571
   D60        1.36472  -0.01161   0.00000  -0.03287  -0.03281   1.33191
   D61       -1.36423   0.01162   0.00000   0.03285   0.03279  -1.33144
   D62       -0.66988   0.00012   0.00000   0.00453   0.00463  -0.66525
   D63        2.79439   0.00576   0.00000   0.01419   0.01412   2.80851
   D64       -2.79444  -0.00574   0.00000  -0.01412  -0.01404  -2.80849
   D65       -0.48190  -0.00130   0.00000  -0.00131  -0.00127  -0.48317
   D66       -2.73856   0.00424   0.00000   0.01840   0.01826  -2.72031
   D67        0.48162   0.00130   0.00000   0.00132   0.00127   0.48290
   D68        2.73105  -0.00419   0.00000  -0.01811  -0.01796   2.71308
   D69        0.00352   0.00001   0.00000   0.00003   0.00003   0.00355
   D70        2.23490  -0.00751   0.00000  -0.02908  -0.02917   2.20573
   D71       -2.20910   0.00851   0.00000   0.03565   0.03577  -2.17334
   D72        2.21471  -0.00845   0.00000  -0.03543  -0.03555   2.17917
   D73       -1.83709  -0.01597   0.00000  -0.06454  -0.06475  -1.90184
   D74        0.00209   0.00005   0.00000   0.00019   0.00019   0.00228
   D75       -2.22839   0.00754   0.00000   0.02916   0.02926  -2.19913
   D76        0.00299   0.00002   0.00000   0.00006   0.00006   0.00305
   D77        1.84217   0.01604   0.00000   0.06479   0.06500   1.90717
         Item               Value     Threshold  Converged?
 Maximum Force            0.060245     0.000450     NO 
 RMS     Force            0.013869     0.000300     NO 
 Maximum Displacement     0.078590     0.001800     NO 
 RMS     Displacement     0.025316     0.001200     NO 
 Predicted change in Energy=-4.272858D-02
 GradGradGradGradGradGradGradGradGradGradGradGradGradGradGradGradGradGrad

                          Input orientation:                          
 ---------------------------------------------------------------------
 Center     Atomic      Atomic             Coordinates (Angstroms)
 Number     Number       Type             X           Y           Z
 ---------------------------------------------------------------------
      1          6           0       -0.762210    1.175308   -0.332680
      2          6           0       -1.127681    0.714902    0.914576
      3          6           0       -1.127535   -0.723395    0.908000
      4          6           0       -0.761541   -1.172340   -0.343318
      5          1           0       -0.692119    2.206770   -0.645047
      6          1           0       -1.341565    1.319081    1.784631
      7          1           0       -1.341362   -1.335591    1.772446
      8          1           0       -0.691245   -2.200938   -0.664974
      9          6           0       -0.657810    0.005747   -1.296027
     10          1           0       -1.509295    0.008581   -2.000489
     11          1           0        0.263783    0.009194   -1.874569
     12          6           0        1.365898    0.764894    0.045098
     13          1           0        1.819208    1.196940    1.036780
     14          1           0        2.163534    1.203607   -0.716921
     15          6           0        1.365607   -0.765022    0.043117
     16          1           0        2.163586   -1.205363   -0.715882
     17          1           0        1.817668   -1.197309    1.037305
 ---------------------------------------------------------------------
                    Distance matrix (angstroms):
                    1          2          3          4          5
     1  C    0.000000
     2  C    1.378837   0.000000
     3  C    2.297351   1.438312   0.000000
     4  C    2.347672   2.297398   1.378876   0.000000
     5  H    1.080000   2.201774   3.344758   3.393264   0.000000
     6  H    2.199848   1.080636   2.232935   3.327427   2.667041
     7  H    3.327399   2.232962   1.080635   2.199841   4.337523
     8  H    3.393301   3.344783   2.201756   1.080008   4.407753
     9  C    1.518819   2.368638   2.368549   1.518652   2.295529
    10  H    2.168174   3.023595   3.023381   2.167931   2.708697
    11  H    2.188585   3.195861   3.196113   2.189073   2.693477
    12  C    2.200000   2.641293   3.029325   2.903401   2.605905
    13  H    2.922261   2.988553   3.519597   3.765425   3.186701
    14  H    2.951003   3.705767   4.145460   3.786920   3.027583
    15  C    2.904085   3.027557   2.639226   2.200000   3.679586
    16  H    3.791401   4.144665   3.701454   2.948942   4.450025
    17  H    3.763235   3.513786   2.985889   2.925587   4.551603
                    6          7          8          9         10
     6  H    0.000000
     7  H    2.654700   0.000000
     8  H    4.337512   2.666926   0.000000
     9  C    3.418014   3.417887   2.295388   0.000000
    10  H    4.009075   4.008745   2.708279   1.105125   0.000000
    11  H    4.205079   4.205431   2.694416   1.088143   1.777543
    12  C    3.265495   3.837320   3.678614   2.543681   3.608764
    13  H    3.250337   4.116324   4.554548   3.605072   4.660057
    14  H    4.307762   4.992871   4.443352   3.119329   4.070050
    15  C    3.834728   3.262485   2.606509   2.545900   3.611073
    16  H    4.991139   4.300395   3.023875   3.124681   4.076019
    17  H    4.107489   3.246386   3.193691   3.608292   4.663801
                   11         12         13         14         15
    11  H    0.000000
    12  C    2.338988   0.000000
    13  H    3.507997   1.172854   0.000000
    14  H    2.525040   1.187166   1.787196   0.000000
    15  C    2.343277   1.529918   2.245532   2.256068   0.000000
    16  H    2.535144   2.257723   2.993573   2.408970   1.186065
    17  H    3.514145   2.244730   2.394249   2.993548   1.174580
                   16         17
    16  H    0.000000
    17  H    1.787005   0.000000
 Stoichiometry    C7H10
 Framework group  C1[X(C7H10)]
 Deg. of freedom    45
 Full point group                 C1      NOp   1
 Largest Abelian subgroup         C1      NOp   1
 Largest concise Abelian subgroup C1      NOp   1
                         Standard orientation:                         
 ---------------------------------------------------------------------
 Center     Atomic      Atomic             Coordinates (Angstroms)
 Number     Number       Type             X           Y           Z
 ---------------------------------------------------------------------
      1          6           0       -0.566591   -1.175337    0.390762
      2          6           0       -1.102923   -0.716527   -0.793734
      3          6           0       -1.103140    0.721775   -0.788602
      4          6           0       -0.566533    1.172320    0.398984
      5          1           0       -0.452685   -2.206415    0.691269
      6          1           0       -1.435574   -1.321788   -1.624864
      7          1           0       -1.436034    1.332894   -1.615335
      8          1           0       -0.452960    2.201311    0.706713
      9          6           0       -0.329840   -0.004678    1.329013
     10          1           0       -1.074702   -0.007402    2.145393
     11          1           0        0.663463   -0.006821    1.773312
     12          6           0        1.487624   -0.763730   -0.280638
     13          1           0        1.798518   -1.196487   -1.325460
     14          1           0        2.384170   -1.201037    0.363049
     15          6           0        1.486251    0.766187   -0.280082
     16          1           0        2.381933    1.207930    0.359736
     17          1           0        1.794789    1.197758   -1.328028
 ---------------------------------------------------------------------
 Rotational constants (GHZ):           3.6510158           2.8884987           2.6063748
 Standard basis: 3-21G (6D, 7F)
 There are    83 symmetry adapted cartesian basis functions of A   symmetry.
 There are    83 symmetry adapted basis functions of A   symmetry.
    83 basis functions,   135 primitive gaussians,    83 cartesian basis functions
    26 alpha electrons       26 beta electrons
       nuclear repulsion energy       292.6478899511 Hartrees.
 NAtoms=   17 NActive=   17 NUniq=   17 SFac= 1.00D+00 NAtFMM=   60 NAOKFM=F Big=F
 Integral buffers will be    131072 words long.
 Raffenetti 2 integral format.
 Two-electron integral symmetry is turned on.
 One-electron integrals computed using PRISM.
 NBasis=    83 RedAO= T EigKep=  4.40D-03  NBF=    83
 NBsUse=    83 1.00D-06 EigRej= -1.00D+00 NBFU=    83
 Initial guess from the checkpoint file:  "C3.chk"
 B after Tr=    -0.000000    0.000000    0.000000
         Rot=    0.999934   -0.000147   -0.011513   -0.000126 Ang=  -1.32 deg.
 ExpMin= 1.83D-01 ExpMax= 1.72D+02 ExpMxC= 1.72D+02 IAcc=3 IRadAn=         5 AccDes= 0.00D+00
 Harris functional with IExCor=  402 and IRadAn=       5 diagonalized for initial guess.
 HarFok:  IExCor=  402 AccDes= 0.00D+00 IRadAn=         5 IDoV= 1 UseB2=F ITyADJ=14
 ICtDFT=  3500011 ScaDFX=  1.000000  1.000000  1.000000  1.000000
 FoFCou: FMM=F IPFlag=           0 FMFlag=      100000 FMFlg1=           0
         NFxFlg=           0 DoJE=T BraDBF=F KetDBF=T FulRan=T
         wScrn=  0.000000 ICntrl=       500 IOpCl=  0 I1Cent=   200000004 NGrid=           0
         NMat0=    1 NMatS0=      1 NMatT0=    0 NMatD0=    1 NMtDS0=    0 NMtDT0=    0
 Petite list used in FoFCou.
 Keep R1 ints in memory in canonical form, NReq=7891734.
 Requested convergence on RMS density matrix=1.00D-08 within 128 cycles.
 Requested convergence on MAX density matrix=1.00D-06.
 Requested convergence on             energy=1.00D-06.
 No special actions if energy rises.
 Integral accuracy reduced to 1.0D-05 until final iterations.
 Initial convergence to 1.0D-05 achieved.  Increase integral accuracy.
 SCF Done:  E(RB3LYP) =  -271.101172958     A.U. after   14 cycles
            NFock= 14  Conv=0.49D-08     -V/T= 2.0108
 Calling FoFJK, ICntrl=      2127 FMM=F ISym2X=0 I1Cent= 0 IOpClX= 0 NMat=1 NMatS=1 NMatT=0.
 ***** Axes restored to original set *****
 -------------------------------------------------------------------
 Center     Atomic                   Forces (Hartrees/Bohr)
 Number     Number              X              Y              Z
 -------------------------------------------------------------------
      1        6           0.061595595    0.006055911   -0.009943202
      2        6          -0.024645824   -0.038636738    0.020434780
      3        6          -0.024633228    0.038498641    0.020789182
      4        6           0.061536503   -0.006012040   -0.009847718
      5        1          -0.005880033    0.000024468   -0.000888974
      6        1           0.001770308    0.000698219   -0.000599432
      7        1           0.001781097   -0.000694927   -0.000604208
      8        1          -0.005865735   -0.000020416   -0.000878003
      9        6          -0.028470996    0.000114416   -0.019161631
     10        1          -0.002971362   -0.000029294    0.002080256
     11        1          -0.006195058   -0.000059763   -0.003786676
     12        6           0.068440793   -0.013669201    0.015094849
     13        1          -0.036663644   -0.011921106   -0.024319945
     14        1          -0.045707977   -0.014416872    0.010281517
     15        6           0.068308620    0.013511768    0.016427359
     16        1          -0.045460426    0.014652269    0.009851617
     17        1          -0.036938635    0.011904664   -0.024929772
 -------------------------------------------------------------------
 Cartesian Forces:  Max     0.068440793 RMS     0.025596618

 GradGradGradGradGradGradGradGradGradGradGradGradGradGradGradGradGradGrad
 Berny optimization.
 Using GEDIIS/GDIIS optimizer.
 FormGI is forming the generalized inverse of G from B-inverse, IUseBI=4.
 Internal  Forces:  Max     0.042637677 RMS     0.009657541
 Search for a local minimum.
 Step number   2 out of a maximum of  102
 All quantities printed in internal units (Hartrees-Bohrs-Radians)
 Mixed Optimization -- RFO/linear search
 Update second derivatives using D2CorX and points    1    2
 DE= -4.61D-02 DEPred=-4.27D-02 R= 1.08D+00
 TightC=F SS=  1.41D+00  RLast= 3.54D-01 DXNew= 5.0454D-01 1.0628D+00
 Trust test= 1.08D+00 RLast= 3.54D-01 DXMaxT set to 5.05D-01
 ITU=  1  0
 Use linear search instead of GDIIS.
 Linear search step of   0.542 exceeds DXMaxT=   0.505 but not scaled.
 Quartic linear search produced a step of  1.80804.
 Iteration  1 RMS(Cart)=  0.04453789 RMS(Int)=  0.00344552
 Iteration  2 RMS(Cart)=  0.00310647 RMS(Int)=  0.00078098
 Iteration  3 RMS(Cart)=  0.00001029 RMS(Int)=  0.00078088
 Iteration  4 RMS(Cart)=  0.00000001 RMS(Int)=  0.00078088
 Iteration  1 RMS(Cart)=  0.00006816 RMS(Int)=  0.00002159
 Iteration  2 RMS(Cart)=  0.00001087 RMS(Int)=  0.00002299
 Iteration  3 RMS(Cart)=  0.00000174 RMS(Int)=  0.00002345
 Iteration  4 RMS(Cart)=  0.00000028 RMS(Int)=  0.00002353
 Variable       Old X    -DE/DX   Delta X   Delta X   Delta X     New X
                                 (Linear)    (Quad)   (Total)
    R1        2.60562   0.02680   0.08621   0.00000   0.08653   2.69215
    R2        2.04090  -0.00010  -0.00197   0.00000  -0.00197   2.03893
    R3        2.87015  -0.00037  -0.00058   0.00000  -0.00068   2.86947
    R4        4.15740  -0.01330  -0.00000   0.00000   0.00000   4.15740
    R5        2.71802  -0.02998  -0.11261   0.00000  -0.11162   2.60640
    R6        2.04211  -0.00044  -0.00216   0.00000  -0.00216   2.03994
    R7        2.60570   0.02679   0.08626   0.00000   0.08658   2.69228
    R8        2.04211  -0.00044  -0.00216   0.00000  -0.00216   2.03994
    R9        2.04092  -0.00010  -0.00196   0.00000  -0.00196   2.03896
   R10        2.86984  -0.00031  -0.00053   0.00000  -0.00064   2.86919
   R11        4.15740  -0.01335  -0.00000   0.00000   0.00000   4.15740
   R12        2.08838   0.00096   0.00926   0.00000   0.00926   2.09765
   R13        2.05629  -0.00441  -0.01224   0.00000  -0.01199   2.04430
   R14        4.42005   0.00030   0.04753   0.00000   0.04804   4.46808
   R15        4.42815   0.00019   0.04692   0.00000   0.04742   4.47557
   R16        2.21637  -0.03913  -0.19761   0.00000  -0.19761   2.01876
   R17        2.24342  -0.04264  -0.21527   0.00000  -0.21527   2.02815
   R18        2.89113  -0.03164  -0.17904   0.00000  -0.18061   2.71051
   R19        2.24134  -0.04233  -0.21367   0.00000  -0.21367   2.02767
   R20        2.21964  -0.03970  -0.20064   0.00000  -0.20064   2.01900
    A1        2.21147  -0.00107  -0.00934   0.00000  -0.01049   2.20098
    A2        1.91223   0.00086   0.01173   0.00000   0.00868   1.92091
    A3        1.60958   0.00264   0.04437   0.00000   0.04400   1.65358
    A4        2.15020  -0.00091  -0.01150   0.00000  -0.01225   2.13795
    A5        1.73661   0.00294   0.00982   0.00000   0.00958   1.74619
    A6        1.46939   0.00210   0.02220   0.00000   0.02291   1.49230
    A7        1.90683   0.00049  -0.00262   0.00000  -0.00370   1.90312
    A8        2.20691  -0.00146   0.00267   0.00000   0.00292   2.20983
    A9        2.16855   0.00083  -0.00101   0.00000  -0.00079   2.16777
   A10        1.90685   0.00047  -0.00264   0.00000  -0.00373   1.90312
   A11        2.16860   0.00084  -0.00097   0.00000  -0.00075   2.16786
   A12        2.20683  -0.00145   0.00266   0.00000   0.00290   2.20973
   A13        2.21135  -0.00105  -0.00918   0.00000  -0.01033   2.20102
   A14        1.91225   0.00086   0.01171   0.00000   0.00867   1.92092
   A15        1.60776   0.00264   0.04429   0.00000   0.04393   1.65169
   A16        2.15021  -0.00094  -0.01165   0.00000  -0.01239   2.13782
   A17        1.73728   0.00295   0.00986   0.00000   0.00961   1.74689
   A18        1.47116   0.00208   0.02201   0.00000   0.02272   1.49388
   A19        1.76681  -0.00517  -0.03734   0.00000  -0.03930   1.72750
   A20        1.92771   0.00452   0.03222   0.00000   0.03251   1.96022
   A21        1.97470  -0.00112  -0.01433   0.00000  -0.01488   1.95982
   A22        1.92758   0.00451   0.03204   0.00000   0.03234   1.95991
   A23        1.97561  -0.00111  -0.01428   0.00000  -0.01483   1.96078
   A24        1.88981  -0.00136   0.00327   0.00000   0.00349   1.89330
   A25        1.53452  -0.00223   0.00875   0.00000   0.00912   1.54364
   A26        1.53286  -0.00223   0.00876   0.00000   0.00914   1.54200
   A27        1.00456   0.00011  -0.01440   0.00000  -0.01458   0.98999
   A28        2.03795  -0.00907  -0.06493   0.00000  -0.06497   1.97298
   A29        2.06095  -0.00980  -0.05881   0.00000  -0.05886   2.00210
   A30        1.75803   0.00323   0.01338   0.00000   0.01298   1.77102
   A31        1.47985  -0.00727  -0.03911   0.00000  -0.03994   1.43991
   A32        1.71825   0.01133   0.08588   0.00000   0.08289   1.80114
   A33        1.94931   0.00105   0.00920   0.00000   0.00862   1.95793
   A34        1.94856   0.00337   0.01721   0.00000   0.01724   1.96580
   A35        1.00367   0.00014  -0.01428   0.00000  -0.01446   0.98921
   A36        1.75743   0.00329   0.01367   0.00000   0.01329   1.77072
   A37        2.05938  -0.00976  -0.05838   0.00000  -0.05844   2.00094
   A38        2.04054  -0.00918  -0.06583   0.00000  -0.06587   1.97468
   A39        1.48601  -0.00729  -0.03937   0.00000  -0.04021   1.44579
   A40        1.95192   0.00322   0.01605   0.00000   0.01607   1.96799
   A41        1.94643   0.00115   0.01024   0.00000   0.00969   1.95613
   A42        1.71739   0.01138   0.08615   0.00000   0.08314   1.80054
   A43        3.04251  -0.00897  -0.07933   0.00000  -0.07954   2.96297
   A44        3.04421  -0.00905  -0.08011   0.00000  -0.08033   2.96388
   A45        3.14781   0.00116  -0.00007   0.00000  -0.00052   3.14729
   A46        3.14506  -0.00125  -0.00083   0.00000  -0.00036   3.14471
    D1        3.11657  -0.00105  -0.01476   0.00000  -0.01397   3.10260
    D2       -0.06911  -0.00449  -0.04362   0.00000  -0.04320  -0.11231
    D3        0.11830   0.00766   0.06919   0.00000   0.07014   0.18844
    D4       -3.06737   0.00422   0.04032   0.00000   0.04091  -3.02646
    D5       -1.35863   0.00449   0.03021   0.00000   0.02977  -1.32886
    D6        1.73887   0.00105   0.00134   0.00000   0.00054   1.73941
    D7       -0.17683  -0.01089  -0.10080   0.00000  -0.09947  -0.27630
    D8        1.86529  -0.00656  -0.06988   0.00000  -0.07013   1.79516
    D9       -2.29628  -0.00580  -0.05212   0.00000  -0.05231  -2.34860
   D10        3.10204  -0.00253  -0.02048   0.00000  -0.01904   3.08299
   D11       -1.13903   0.00181   0.01044   0.00000   0.01029  -1.12874
   D12        0.98259   0.00257   0.02820   0.00000   0.02811   1.01070
   D13        1.39917  -0.00742  -0.04698   0.00000  -0.04505   1.35412
   D14       -2.84189  -0.00308  -0.01606   0.00000  -0.01572  -2.85761
   D15       -0.72028  -0.00232   0.00170   0.00000   0.00210  -0.71818
   D16        2.25106   0.00092   0.00571   0.00000   0.00500   2.25606
   D17       -0.89676  -0.00023   0.00578   0.00000   0.00553  -0.89123
   D18       -2.94064  -0.00020  -0.00873   0.00000  -0.00939  -2.95004
   D19        1.21716  -0.00143  -0.00787   0.00000  -0.00826   1.20890
   D20       -1.80148   0.00098   0.00786   0.00000   0.00784  -1.79365
   D21        1.33389  -0.00017   0.00793   0.00000   0.00836   1.34225
   D22       -0.71000  -0.00014  -0.00658   0.00000  -0.00656  -0.71656
   D23       -2.83539  -0.00137  -0.00572   0.00000  -0.00542  -2.84081
   D24        0.34091   0.00030  -0.00121   0.00000  -0.00121   0.33971
   D25       -2.80690  -0.00086  -0.00114   0.00000  -0.00068  -2.80758
   D26        1.43240  -0.00082  -0.01566   0.00000  -0.01560   1.41680
   D27       -0.69299  -0.00206  -0.01480   0.00000  -0.01447  -0.70746
   D28        0.00034  -0.00001  -0.00015   0.00000  -0.00014   0.00020
   D29        3.09878  -0.00342  -0.02809   0.00000  -0.02832   3.07046
   D30       -3.09835   0.00340   0.02787   0.00000   0.02811  -3.07024
   D31        0.00008  -0.00001  -0.00007   0.00000  -0.00007   0.00002
   D32       -3.11648   0.00105   0.01473   0.00000   0.01396  -3.10252
   D33       -0.11885  -0.00764  -0.06898   0.00000  -0.06993  -0.18879
   D34        1.35931  -0.00450  -0.03023   0.00000  -0.02980   1.32952
   D35        0.06945   0.00448   0.04352   0.00000   0.04311   0.11256
   D36        3.06708  -0.00421  -0.04019   0.00000  -0.04078   3.02630
   D37       -1.73794  -0.00107  -0.00144   0.00000  -0.00064  -1.73858
   D38        0.17704   0.01088   0.10070   0.00000   0.09938   0.27641
   D39       -1.86518   0.00654   0.06965   0.00000   0.06991  -1.79527
   D40        2.29585   0.00578   0.05195   0.00000   0.05214   2.34799
   D41       -3.10245   0.00254   0.02062   0.00000   0.01919  -3.08326
   D42        1.13851  -0.00180  -0.01043   0.00000  -0.01028   1.12824
   D43       -0.98364  -0.00257  -0.02814   0.00000  -0.02804  -1.01168
   D44       -1.39765   0.00742   0.04702   0.00000   0.04509  -1.35255
   D45        2.84332   0.00307   0.01597   0.00000   0.01562   2.85894
   D46        0.72116   0.00231  -0.00174   0.00000  -0.00214   0.71902
   D47       -2.25103  -0.00092  -0.00575   0.00000  -0.00502  -2.25605
   D48       -1.22420   0.00140   0.00761   0.00000   0.00800  -1.21620
   D49        2.93068   0.00030   0.00953   0.00000   0.01019   2.94087
   D50        0.88709   0.00033  -0.00492   0.00000  -0.00467   0.88243
   D51        1.80195  -0.00100  -0.00800   0.00000  -0.00796   1.79399
   D52        2.82878   0.00132   0.00536   0.00000   0.00506   2.83384
   D53        0.70048   0.00022   0.00728   0.00000   0.00725   0.70772
   D54       -1.34311   0.00025  -0.00717   0.00000  -0.00761  -1.35072
   D55       -0.34068  -0.00029   0.00118   0.00000   0.00119  -0.33950
   D56        0.68614   0.00202   0.01454   0.00000   0.01421   0.70036
   D57       -1.44216   0.00092   0.01647   0.00000   0.01640  -1.42576
   D58        2.79744   0.00095   0.00202   0.00000   0.00154   2.79898
   D59        0.66571  -0.00026  -0.00842   0.00000  -0.00889   0.65682
   D60        1.33191  -0.00781  -0.05933   0.00000  -0.05903   1.27288
   D61       -1.33144   0.00782   0.05928   0.00000   0.05898  -1.27246
   D62       -0.66525   0.00026   0.00837   0.00000   0.00885  -0.65640
   D63        2.80851   0.00378   0.02552   0.00000   0.02513   2.83364
   D64       -2.80849  -0.00377  -0.02539   0.00000  -0.02500  -2.83349
   D65       -0.48317  -0.00166  -0.00230   0.00000  -0.00209  -0.48526
   D66       -2.72031   0.00510   0.03301   0.00000   0.03224  -2.68806
   D67        0.48290   0.00166   0.00230   0.00000   0.00209   0.48499
   D68        2.71308  -0.00504  -0.03247   0.00000  -0.03170   2.68139
   D69        0.00355   0.00001   0.00005   0.00000   0.00005   0.00360
   D70        2.20573  -0.00791  -0.05275   0.00000  -0.05328   2.15245
   D71       -2.17334   0.00832   0.06467   0.00000   0.06525  -2.10808
   D72        2.17917  -0.00826  -0.06427   0.00000  -0.06486   2.11431
   D73       -1.90184  -0.01618  -0.11707   0.00000  -0.11818  -2.02002
   D74        0.00228   0.00004   0.00035   0.00000   0.00035   0.00263
   D75       -2.19913   0.00794   0.05290   0.00000   0.05343  -2.14570
   D76        0.00305   0.00002   0.00010   0.00000   0.00010   0.00315
   D77        1.90717   0.01625   0.11752   0.00000   0.11863   2.02580
         Item               Value     Threshold  Converged?
 Maximum Force            0.042638     0.000450     NO 
 RMS     Force            0.009571     0.000300     NO 
 Maximum Displacement     0.146650     0.001800     NO 
 RMS     Displacement     0.046085     0.001200     NO 
 Predicted change in Energy=-4.569458D-02
 GradGradGradGradGradGradGradGradGradGradGradGradGradGradGradGradGradGrad

                          Input orientation:                          
 ---------------------------------------------------------------------
 Center     Atomic      Atomic             Coordinates (Angstroms)
 Number     Number       Type             X           Y           Z
 ---------------------------------------------------------------------
      1          6           0       -0.706367    1.155791   -0.326768
      2          6           0       -1.145491    0.685289    0.944199
      3          6           0       -1.145351   -0.693944    0.938041
      4          6           0       -0.705859   -1.152999   -0.337054
      5          1           0       -0.635262    2.187999   -0.632777
      6          1           0       -1.375966    1.288233    1.809439
      7          1           0       -1.375702   -1.304716    1.797806
      8          1           0       -0.634531   -2.182412   -0.652328
      9          6           0       -0.649214    0.005700   -1.316586
     10          1           0       -1.511181    0.008389   -2.015989
     11          1           0        0.263515    0.009095   -1.897279
     12          6           0        1.417886    0.717180    0.040882
     13          1           0        1.774184    1.119336    0.964220
     14          1           0        2.093317    1.130797   -0.683400
     15          6           0        1.417449   -0.717161    0.039252
     16          1           0        2.094126   -1.131613   -0.683005
     17          1           0        1.771372   -1.119896    0.963393
 ---------------------------------------------------------------------
                    Distance matrix (angstroms):
                    1          2          3          4          5
     1  C    0.000000
     2  C    1.424627   0.000000
     3  C    2.283411   1.379247   0.000000
     4  C    2.308812   2.283460   1.424694   0.000000
     5  H    1.078958   2.237258   3.321634   3.354802   0.000000
     6  H    2.242607   1.079491   2.177509   3.319050   2.706038
     7  H    3.319023   2.177558   1.079490   2.242618   4.319147
     8  H    3.354810   3.321700   2.237353   1.078971   4.370455
     9  C    1.518458   2.412319   2.412259   1.518312   2.286967
    10  H    2.194931   3.058536   3.058332   2.194581   2.726024
    11  H    2.173037   3.242921   3.243179   2.173580   2.674769
    12  C    2.200000   2.718070   3.060449   2.854942   2.613913
    13  H    2.796626   2.951830   3.436910   3.606582   3.081861
    14  H    2.822418   3.652045   4.055579   3.629196   2.926667
    15  C    2.855262   3.058507   2.715936   2.200000   3.620111
    16  H    3.633440   4.055126   3.648775   2.821357   4.297896
    17  H    3.603118   3.430328   2.947770   2.798023   4.391106
                    6          7          8          9         10
     6  H    0.000000
     7  H    2.592975   0.000000
     8  H    4.319191   2.706075   0.000000
     9  C    3.456168   3.456068   2.286764   0.000000
    10  H    4.036111   4.035794   2.725380   1.110027   0.000000
    11  H    4.250160   4.250504   2.675649   1.081800   1.778662
    12  C    3.355519   3.870268   3.619474   2.573291   3.648635
    13  H    3.265941   4.061117   4.395074   3.509290   4.572687
    14  H    4.274922   4.911435   4.291792   3.031212   4.003498
    15  C    3.867602   3.352525   2.614549   2.575252   3.650660
    16  H    4.910140   4.268968   2.924156   3.036580   4.009325
    17  H    4.052236   3.261054   3.086724   3.510627   4.574374
                   11         12         13         14         15
    11  H    0.000000
    12  C    2.364408   0.000000
    13  H    3.420955   1.068284   0.000000
    14  H    2.465744   1.073252   1.678281   0.000000
    15  C    2.368368   1.434342   2.086995   2.096181   0.000000
    16  H    2.475240   2.097463   2.807577   2.262411   1.072995
    17  H    3.425157   2.085864   2.239234   2.807347   1.068407
                   16         17
    16  H    0.000000
    17  H    1.677777   0.000000
 Stoichiometry    C7H10
 Framework group  C1[X(C7H10)]
 Deg. of freedom    45
 Full point group                 C1      NOp   1
 Largest Abelian subgroup         C1      NOp   1
 Largest concise Abelian subgroup C1      NOp   1
                         Standard orientation:                         
 ---------------------------------------------------------------------
 Center     Atomic      Atomic             Coordinates (Angstroms)
 Number     Number       Type             X           Y           Z
 ---------------------------------------------------------------------
      1          6           0       -0.513689   -1.156307    0.403241
      2          6           0       -1.172842   -0.686747   -0.769189
      3          6           0       -1.173325    0.692487   -0.763296
      4          6           0       -0.514233    1.152485    0.413035
      5          1           0       -0.387909   -2.188329    0.691788
      6          1           0       -1.553051   -1.290248   -1.579453
      7          1           0       -1.553949    1.302703   -1.568319
      8          1           0       -0.389152    2.182086    0.710447
      9          6           0       -0.282511   -0.005828    1.366916
     10          1           0       -1.006055   -0.009333    2.208718
     11          1           0        0.719086   -0.007933    1.775680
     12          6           0        1.510510   -0.715249   -0.337085
     13          1           0        1.697080   -1.117273   -1.309093
     14          1           0        2.304704   -1.127816    0.255294
     15          6           0        1.508584    0.719091   -0.335551
     16          1           0        2.302611    1.134594    0.254530
     17          1           0        1.691670    1.121954   -1.308009
 ---------------------------------------------------------------------
 Rotational constants (GHZ):           3.7505795           2.8242793           2.6333391
 Standard basis: 3-21G (6D, 7F)
 There are    83 symmetry adapted cartesian basis functions of A   symmetry.
 There are    83 symmetry adapted basis functions of A   symmetry.
    83 basis functions,   135 primitive gaussians,    83 cartesian basis functions
    26 alpha electrons       26 beta electrons
       nuclear repulsion energy       294.7537880552 Hartrees.
 NAtoms=   17 NActive=   17 NUniq=   17 SFac= 1.00D+00 NAtFMM=   60 NAOKFM=F Big=F
 Integral buffers will be    131072 words long.
 Raffenetti 2 integral format.
 Two-electron integral symmetry is turned on.
 One-electron integrals computed using PRISM.
 NBasis=    83 RedAO= T EigKep=  4.43D-03  NBF=    83
 NBsUse=    83 1.00D-06 EigRej= -1.00D+00 NBFU=    83
 Initial guess from the checkpoint file:  "C3.chk"
 B after Tr=     0.000000    0.000000   -0.000000
         Rot=    0.999806   -0.000377   -0.019671   -0.000173 Ang=  -2.25 deg.
 ExpMin= 1.83D-01 ExpMax= 1.72D+02 ExpMxC= 1.72D+02 IAcc=3 IRadAn=         5 AccDes= 0.00D+00
 Harris functional with IExCor=  402 and IRadAn=       5 diagonalized for initial guess.
 HarFok:  IExCor=  402 AccDes= 0.00D+00 IRadAn=         5 IDoV= 1 UseB2=F ITyADJ=14
 ICtDFT=  3500011 ScaDFX=  1.000000  1.000000  1.000000  1.000000
 FoFCou: FMM=F IPFlag=           0 FMFlag=      100000 FMFlg1=           0
         NFxFlg=           0 DoJE=T BraDBF=F KetDBF=T FulRan=T
         wScrn=  0.000000 ICntrl=       500 IOpCl=  0 I1Cent=   200000004 NGrid=           0
         NMat0=    1 NMatS0=      1 NMatT0=    0 NMatD0=    1 NMtDS0=    0 NMtDT0=    0
 Petite list used in FoFCou.
 Keep R1 ints in memory in canonical form, NReq=7891734.
 Requested convergence on RMS density matrix=1.00D-08 within 128 cycles.
 Requested convergence on MAX density matrix=1.00D-06.
 Requested convergence on             energy=1.00D-06.
[...]
 ! D28   D(1,2,3,4)              0.0008         -DE/DX =    0.0                 !
 ! D29   D(1,2,3,7)            172.1189         -DE/DX =   -0.0001              !
 ! D30   D(6,2,3,4)           -172.1181         -DE/DX =    0.0001              !
 ! D31   D(6,2,3,7)              0.0            -DE/DX =    0.0                 !
 ! D32   D(2,3,4,8)           -171.1778         -DE/DX =   -0.0001              !
 ! D33   D(2,3,4,9)            -19.3509         -DE/DX =   -0.0004              !
 ! D34   D(2,3,4,15)            73.4523         -DE/DX =    0.0001              !
 ! D35   D(7,3,4,8)             16.6815         -DE/DX =    0.0                 !
 ! D36   D(7,3,4,9)            168.5083         -DE/DX =   -0.0003              !
 ! D37   D(7,3,4,15)           -98.6884         -DE/DX =    0.0002              !
 ! D38   D(3,4,9,1)             28.9664         -DE/DX =    0.0005              !
 ! D39   D(3,4,9,10)           -83.7361         -DE/DX =    0.0001              !
 ! D40   D(3,4,9,11)           153.3214         -DE/DX =    0.0003              !
 ! D41   D(8,4,9,1)           -178.6154         -DE/DX =    0.0002              !
 ! D42   D(8,4,9,10)            68.6821         -DE/DX =   -0.0001              !
 ! D43   D(8,4,9,11)           -54.2603         -DE/DX =    0.0001              !
 ! D44   D(15,4,9,1)           -70.8745         -DE/DX =    0.0011              !
 ! D45   D(15,4,9,10)          176.423          -DE/DX =    0.0007              !
 ! D46   D(15,4,9,11)           53.4806         -DE/DX =    0.0009              !
 ! D47   D(3,4,15,11)         -128.1036         -DE/DX =   -0.0003              !
 ! D48   D(3,4,15,12)          -67.8562         -DE/DX =   -0.0002              !
 ! D49   D(3,4,15,16)          170.6614         -DE/DX =   -0.0003              !
 ! D50   D(3,4,15,17)           54.8676         -DE/DX =   -0.0002              !
 ! D51   D(8,4,15,11)          102.3849         -DE/DX =    0.0                 !
 ! D52   D(8,4,15,12)          162.6324         -DE/DX =    0.0001              !
 ! D53   D(8,4,15,16)           41.1499         -DE/DX =    0.0                 !
 ! D54   D(8,4,15,17)          -74.6439         -DE/DX =    0.0001              !
 ! D55   D(9,4,15,11)          -21.5922         -DE/DX =    0.0                 !
 ! D56   D(9,4,15,12)           38.6553         -DE/DX =    0.0001              !
 ! D57   D(9,4,15,16)          -82.8272         -DE/DX =    0.0                 !
 ! D58   D(9,4,15,17)          161.379          -DE/DX =    0.0001              !
 ! D59   D(1,9,11,12)           42.3147         -DE/DX =   -0.0006              !
 ! D60   D(1,9,11,15)           73.2083         -DE/DX =   -0.0001              !
 ! D61   D(4,9,11,12)          -73.209          -DE/DX =    0.0001              !
 ! D62   D(4,9,11,15)          -42.3154         -DE/DX =    0.0006              !
 ! D63   D(10,9,11,12)         164.553          -DE/DX =   -0.0003              !
 ! D64   D(10,9,11,15)        -164.5534         -DE/DX =    0.0003              !
 ! D65   D(9,11,12,1)          -31.8289         -DE/DX =   -0.0005              !
 ! D66   D(9,11,12,14)        -143.2003         -DE/DX =   -0.0002              !
 ! D67   D(9,11,15,4)           31.8295         -DE/DX =    0.0005              !
 ! D68   D(9,11,15,16)         143.2048         -DE/DX =    0.0002              !
 ! D69   D(1,12,15,4)           -0.0018         -DE/DX =    0.0                 !
 ! D70   D(1,12,15,16)         101.6649         -DE/DX =    0.0001              !
 ! D71   D(1,12,15,17)        -105.0894         -DE/DX =    0.0002              !
 ! D72   D(13,12,15,4)         105.0864         -DE/DX =   -0.0002              !
 ! D73   D(13,12,15,16)       -153.247          -DE/DX =    0.0                 !
 ! D74   D(13,12,15,17)         -0.0013         -DE/DX =    0.0                 !
 ! D75   D(14,12,15,4)        -101.6692         -DE/DX =   -0.0001              !
 ! D76   D(14,12,15,16)         -0.0026         -DE/DX =    0.0                 !
 ! D77   D(14,12,15,17)        153.2431         -DE/DX =    0.0                 !
 --------------------------------------------------------------------------------
 GradGradGradGradGradGradGradGradGradGradGradGradGradGradGradGradGradGrad

                          Input orientation:                          
 ---------------------------------------------------------------------
 Center     Atomic      Atomic             Coordinates (Angstroms)
 Number     Number       Type             X           Y           Z
 ---------------------------------------------------------------------
      1          6           0       -0.545603    1.165777   -0.310439
      2          6           0       -1.128507    0.697635    0.886494
      3          6           0       -1.128419   -0.703812    0.881602
      4          6           0       -0.545439   -1.163506   -0.318561
      5          1           0       -0.543369    2.201714   -0.624930
      6          1           0       -1.402225    1.319079    1.728204
      7          1           0       -1.402058   -1.331152    1.718953
      8          1           0       -0.543046   -2.197224   -0.640269
      9          6           0       -0.606587    0.004563   -1.298630
     10          1           0       -1.605067    0.006133   -1.768035
     11          1           0        0.158236    0.007310   -2.074186
     12          6           0        1.563103    0.699318    0.108815
     13          1           0        1.625202    1.238316    1.046191
     14          1           0        1.930982    1.240013   -0.757931
     15          6           0        1.563206   -0.699668    0.103897
     16          1           0        1.931109   -1.234134   -0.766612
     17          1           0        1.625406   -1.245296    1.037484
 ---------------------------------------------------------------------
                    Distance matrix (angstroms):
                    1          2          3          4          5
     1  C    0.000000
     2  C    1.411234   0.000000
     3  C    2.292597   1.401456   0.000000
     4  C    2.329297   2.292591   1.411232   0.000000
     5  H    1.082624   2.211118   3.324756   3.379138   0.000000
     6  H    2.216612   1.081476   2.209930   3.329648   2.655921
     7  H    3.329655   2.209931   1.081476   2.216611   4.325769
     8  H    3.379137   3.324752   2.211115   1.082624   4.398965
     9  C    1.525994   2.351067   2.351066   1.525994   2.298987
    10  H    2.142854   2.784208   2.784204   2.142858   2.693412
    11  H    2.224463   3.301194   3.301191   2.224453   2.721764
    12  C    2.200000   2.801705   3.132134   2.845824   2.689387
    13  H    2.560879   2.810827   3.373629   3.513258   2.902324
    14  H    2.517783   3.515505   3.978247   3.478880   2.658001
    15  C    2.845809   3.132129   2.801729   2.200000   3.658806
    16  H    3.478759   3.978158   3.515475   2.517743   4.236528
    17  H    3.513324   3.373694   2.810881   2.560882   4.398759
                    6          7          8          9         10
     6  H    0.000000
     7  H    2.650247   0.000000
     8  H    4.325764   2.655920   0.000000
     9  C    3.394512   3.394512   2.298987   0.000000
    10  H    3.740142   3.740138   2.693423   1.103316   0.000000
    11  H    4.314389   4.314384   2.721744   1.089243   1.789683
    12  C    3.435069   3.937961   3.658817   2.677899   3.747049
    13  H    3.104348   4.027291   4.398679   3.464277   4.457890
    14  H    4.159013   4.884157   4.236656   2.873664   3.878970
    15  C    3.937955   3.435108   2.689378   2.677876   3.747030
    16  H    4.884068   4.159021   2.657997   2.873554   3.878872
    17  H    4.027364   3.104402   2.902276   3.464298   4.457910
                   11         12         13         14         15
    11  H    0.000000
    12  C    2.686637   0.000000
    13  H    3.661164   1.083075   0.000000
    14  H    2.528776   1.085787   1.829853   0.000000
    15  C    2.686597   1.398994   2.155816   2.154151   0.000000
    16  H    2.528639   2.154074   3.081045   2.474161   1.085722
    17  H    3.661161   2.155882   2.483627   3.081176   1.083127
                   16         17
    16  H    0.000000
    17  H    1.829847   0.000000
 Stoichiometry    C7H10
 Framework group  C1[X(C7H10)]
 Deg. of freedom    45
 Full point group                 C1      NOp   1
 Largest Abelian subgroup         C1      NOp   1
 Largest concise Abelian subgroup C1      NOp   1
                         Standard orientation:                         
 ---------------------------------------------------------------------
 Center     Atomic      Atomic             Coordinates (Angstroms)
 Number     Number       Type             X           Y           Z
 ---------------------------------------------------------------------
      1          6           0       -0.438928   -1.164648    0.362439
      2          6           0       -1.179220   -0.700752   -0.745871
      3          6           0       -1.179251    0.700704   -0.745885
      4          6           0       -0.438964    1.164649    0.362404
      5          1           0       -0.393433   -2.199477    0.677296
      6          1           0       -1.564347   -1.325164   -1.540463
      7          1           0       -1.564406    1.325083   -1.540490
      8          1           0       -0.393487    2.199488    0.677228
      9          6           0       -0.365815    0.000016    1.345734
     10          1           0       -1.291307    0.000008    1.946374
     11          1           0        0.497235    0.000050    2.010260
     12          6           0        1.593059   -0.699485   -0.340876
     13          1           0        1.527602   -1.241758   -1.276133
     14          1           0        2.075523   -1.237109    0.469755
     15          6           0        1.593047    0.699509   -0.340858
     16          1           0        2.075447    1.237053    0.469778
     17          1           0        1.527599    1.241868   -1.276126
 ---------------------------------------------------------------------
 Rotational constants (GHZ):           3.7742823           2.8177650           2.5708090

 **********************************************************************

            Population analysis using the SCF Density.

 **********************************************************************

 Orbital symmetries:
       Occupied  (A) (A) (A) (A) (A) (A) (A) (A) (A) (A) (A) (A)
                 (A) (A) (A) (A) (A) (A) (A) (A) (A) (A) (A) (A)
                 (A) (A)
       Virtual   (A) (A) (A) (A) (A) (A) (A) (A) (A) (A) (A) (A)
                 (A) (A) (A) (A) (A) (A) (A) (A) (A) (A) (A) (A)
                 (A) (A) (A) (A) (A) (A) (A) (A) (A) (A) (A) (A)
                 (A) (A) (A) (A) (A) (A) (A) (A) (A) (A) (A) (A)
                 (A) (A) (A) (A) (A) (A) (A) (A) (A)
 The electronic state is 1-A.
 Alpha  occ. eigenvalues --  -10.13013 -10.12943 -10.12057 -10.11122 -10.10998
 Alpha  occ. eigenvalues --  -10.10943 -10.10832  -0.85755  -0.73695  -0.69876
 Alpha  occ. eigenvalues --   -0.69471  -0.56785  -0.55181  -0.51832  -0.51082
 Alpha  occ. eigenvalues --   -0.45489  -0.43201  -0.39847  -0.38293  -0.37120
 Alpha  occ. eigenvalues --   -0.36612  -0.35255  -0.33454  -0.30747  -0.22077
 Alpha  occ. eigenvalues --   -0.21424
 Alpha virt. eigenvalues --    0.00730   0.02797   0.12519   0.13097   0.15614
 Alpha virt. eigenvalues --    0.16187   0.17910   0.18695   0.19246   0.19967
 Alpha virt. eigenvalues --    0.21119   0.22015   0.23723   0.25965   0.28122
 Alpha virt. eigenvalues --    0.34138   0.34912   0.41556   0.44177   0.65844
 Alpha virt. eigenvalues --    0.66944   0.71296   0.72704   0.73744   0.75283
 Alpha virt. eigenvalues --    0.75406   0.77440   0.77582   0.79042   0.82568
 Alpha virt. eigenvalues --    0.86993   0.91332   0.91561   0.95125   0.98415
 Alpha virt. eigenvalues --    0.99318   1.00528   1.01310   1.02350   1.04131
 Alpha virt. eigenvalues --    1.06471   1.08265   1.11211   1.11667   1.15607
 Alpha virt. eigenvalues --    1.17804   1.33334   1.35310   1.38784   1.39673
 Alpha virt. eigenvalues --    1.42465   1.67869   1.72286   2.02316   2.09306
 Alpha virt. eigenvalues --    2.13375   2.63718
          Condensed to atoms (all electrons):
               1          2          3          4          5          6
     1  C    5.377230   0.432025  -0.110139  -0.142346   0.390139  -0.037280
     2  C    0.432025   5.201802   0.465576  -0.110141  -0.037204   0.391322
     3  C   -0.110139   0.465576   5.201801   0.432023   0.004514  -0.035746
     4  C   -0.142346  -0.110141   0.432023   5.377232   0.003732   0.004183
     5  H    0.390139  -0.037204   0.004514   0.003732   0.509834  -0.002060
     6  H   -0.037280   0.391322  -0.035746   0.004183  -0.002060   0.504801
     7  H    0.004183  -0.035746   0.391322  -0.037280  -0.000050  -0.001796
     8  H    0.003732   0.004515  -0.037204   0.390139  -0.000049  -0.000050
     9  C    0.317472  -0.122512  -0.122513   0.317475  -0.031278   0.003942
    10  H   -0.040450   0.001678   0.001678  -0.040450  -0.000237  -0.000125
    11  H   -0.033378   0.004266   0.004266  -0.033380  -0.001070  -0.000049
    12  C    0.081085  -0.022336  -0.018594  -0.022143  -0.009697   0.000243
    13  H   -0.009013  -0.002639   0.000646   0.001081   0.000071   0.000225
    14  H   -0.008429   0.000338   0.000228   0.001306   0.000140  -0.000008
    15  C   -0.022145  -0.018594  -0.022334   0.081086   0.000346  -0.000188
    16  H    0.001306   0.000229   0.000338  -0.008428  -0.000014   0.000001
    17  H    0.001081   0.000646  -0.002640  -0.009014  -0.000011   0.000003
               7          8          9         10         11         12
     1  C    0.004183   0.003732   0.317472  -0.040450  -0.033378   0.081085
     2  C   -0.035746   0.004515  -0.122512   0.001678   0.004266  -0.022336
     3  C    0.391322  -0.037204  -0.122513   0.001678   0.004266  -0.018594
     4  C   -0.037280   0.390139   0.317475  -0.040450  -0.033380  -0.022143
     5  H   -0.000050  -0.000049  -0.031278  -0.000237  -0.001070  -0.009697
     6  H   -0.001796  -0.000050   0.003942  -0.000125  -0.000049   0.000243
     7  H    0.504801  -0.002060   0.003942  -0.000125  -0.000049  -0.000188
     8  H   -0.002060   0.509834  -0.031277  -0.000237  -0.001070   0.000346
     9  C    0.003942  -0.031277   5.406975   0.342865   0.370928  -0.036941
    10  H   -0.000125  -0.000237   0.342865   0.535587  -0.024452   0.002736
    11  H   -0.000049  -0.001070   0.370928  -0.024452   0.523759  -0.002426
    12  C   -0.000188   0.000346  -0.036941   0.002736  -0.002426   5.284387
    13  H    0.000003  -0.000011   0.000795  -0.000018   0.000070   0.383907
    14  H    0.000001  -0.000014  -0.000980  -0.000006   0.000891   0.377277
    15  C    0.000243  -0.009697  -0.036945   0.002736  -0.002426   0.450671
    16  H   -0.000008   0.000140  -0.000980  -0.000006   0.000891  -0.047390
    17  H    0.000225   0.000071   0.000795  -0.000018   0.000070  -0.043976
              13         14         15         16         17
     1  C   -0.009013  -0.008429  -0.022145   0.001306   0.001081
     2  C   -0.002639   0.000338  -0.018594   0.000229   0.000646
     3  C    0.000646   0.000228  -0.022334   0.000338  -0.002640
     4  C    0.001081   0.001306   0.081086  -0.008428  -0.009014
     5  H    0.000071   0.000140   0.000346  -0.000014  -0.000011
     6  H    0.000225  -0.000008  -0.000188   0.000001   0.000003
     7  H    0.000003   0.000001   0.000243  -0.000008   0.000225
     8  H   -0.000011  -0.000014  -0.009697   0.000140   0.000071
     9  C    0.000795  -0.000980  -0.036945  -0.000980   0.000795
    10  H   -0.000018  -0.000006   0.002736  -0.000006  -0.000018
    11  H    0.000070   0.000891  -0.002426   0.000891   0.000070
    12  C    0.383907   0.377277   0.450671  -0.047390  -0.043976
    13  H    0.511779  -0.031459  -0.043983   0.003038  -0.004682
    14  H   -0.031459   0.525407  -0.047383  -0.004822   0.003037
    15  C   -0.043983  -0.047383   5.284390   0.377279   0.383907
    16  H    0.003038  -0.004822   0.377279   0.525395  -0.031459
    17  H   -0.004682   0.003037   0.383907  -0.031459   0.511788
 Mulliken charges:
               1
     1  C   -0.205074
     2  C   -0.153224
     3  C   -0.153223
     4  C   -0.205076
     5  H    0.172893
     6  H    0.172582
     7  H    0.172582
     8  H    0.172893
     9  C   -0.381763
    10  H    0.218844
    11  H    0.193159
    12  C   -0.376962
    13  H    0.190190
    14  H    0.184476
    15  C   -0.376964
    16  H    0.184491
    17  H    0.190177
 Sum of Mulliken charges =  -0.00000
 Mulliken charges with hydrogens summed into heavy atoms:
               1
     1  C   -0.032181
     2  C    0.019358
     3  C    0.019358
     4  C   -0.032183
     9  C    0.030240
    12  C   -0.002296
    15  C   -0.002296
 Electronic spatial extent (au):  <R**2>=            651.5551
 Charge=             -0.0000 electrons
 Dipole moment (field-independent basis, Debye):
    X=             -0.0177    Y=             -0.0000    Z=              0.3666  Tot=              0.3670
 Quadrupole moment (field-independent basis, Debye-Ang):
   XX=            -46.4088   YY=            -40.8007   ZZ=            -41.1317
   XY=             -0.0001   XZ=              1.7567   YZ=             -0.0000
 Traceless Quadrupole moment (field-independent basis, Debye-Ang):
   XX=             -3.6284   YY=              1.9797   ZZ=              1.6487
   XY=             -0.0001   XZ=              1.7567   YZ=             -0.0000
 Octapole moment (field-independent basis, Debye-Ang**2):
  XXX=              0.1636  YYY=              0.0000  ZZZ=             -0.8944  XYY=             -0.0025
  XXY=             -0.0002  XXZ=              1.1225  XZZ=             -1.5924  YZZ=              0.0000
  YYZ=             -0.3804  XYZ=             -0.0001
 Hexadecapole moment (field-independent basis, Debye-Ang**3):
 XXXX=           -428.2196 YYYY=           -252.8493 ZZZZ=           -216.2181 XXXY=             -0.0012
 XXXZ=             11.4295 YYYX=             -0.0002 YYYZ=             -0.0004 ZZZX=              4.1320
 ZZZY=              0.0001 XXYY=           -109.2960 XXZZ=            -95.1155 YYZZ=            -76.0593
 XXYZ=             -0.0002 YYXZ=              3.8808 ZZXY=              0.0002
 N-N= 2.942761739042D+02 E-N=-1.215873547015D+03  KE= 2.687009154875D+02
 1\1\GINC-TACHAS\FOpt\RB3LYP\3-21G\C7H10\LEOS\20-Oct-2019\0\\# opt=modr
 edundant b3lyp/3-21g geom=connectivity\\Title Card Required\\0,1\C,-0.
 5456030233,1.1657768612,-0.3104393403\C,-1.1285068076,0.6976354918,0.8
 864939032\C,-1.128418554,-0.7038118624,0.8816021236\C,-0.5454393523,-1
 .1635059362,-0.3185611802\H,-0.5433691319,2.2017141981,-0.624929856\H,
 -1.402225181,1.3190790162,1.7282040637\H,-1.4020583264,-1.3311515886,1
 .7189529895\H,-0.5430461211,-2.1972238786,-0.6402687127\C,-0.606587247
 1,0.0045628982,-1.2986296742\H,-1.6050666462,0.0061326281,-1.768035473
 6\H,0.1582359589,0.0073104722,-2.0741864093\C,1.563103323,0.6993177487
 ,0.1088145627\H,1.625202014,1.2383156769,1.0461914302\H,1.930981577,1.
 2400125719,-0.7579307408\C,1.5632056476,-0.699667535,0.1038966974\H,1.
 9311093025,-1.2341335652,-0.7666121161\H,1.6254057779,-1.2452956274,1.
 0374835029\\Version=ES64L-G16RevB.01\State=1-A\HF=-271.1794567\RMSD=3.
 354e-09\RMSF=2.808e-03\Dipole=-0.0264688,0.0004972,-0.1419535\Quadrupo
 le=-2.9766562,1.4718417,1.5048145,0.0022549,-0.7300865,-0.0002106\PG=C
 01 [X(C7H10)]\\@


 NATURE WILL TELL YOU A DIRECT LIE IF SHE CAN.

                                -- CHARLES DARWIN
 Job cpu time:       0 days  0 hours  8 minutes 38.6 seconds.
 Elapsed time:       0 days  0 hours  4 minutes 21.4 seconds.
 File lengths (MBytes):  RWF=     10 Int=      0 D2E=      0 Chk=      2 Scr=      1
 Normal termination of Gaussian 16 at Sun Oct 20 19:26:58 2019.
