 Entering Gaussian System, Link 0=g16
 Input=/home/leos/jsmolpage/PDB/Ciclo/C2.3.com
 Output=/home/leos/jsmolpage/PDB/Ciclo/C2.3.log
 Initial command:
 /opt/g16/l1.exe "/tmp/Gau-7230.inp" -scrdir="/tmp/"
 Entering Link 1 = /opt/g16/l1.exe PID=      7233.
  
 Copyright (c) 1988-2017, Gaussian, Inc.  All Rights Reserved.
  
 This is part of the Gaussian(R) 16 program.  It is based on
 the Gaussian(R) 09 system (copyright 2009, Gaussian, Inc.),
 the Gaussian(R) 03 system (copyright 2003, Gaussian, Inc.),
 the Gaussian(R) 98 system (copyright 1998, Gaussian, Inc.),
 the Gaussian(R) 94 system (copyright 1995, Gaussian, Inc.),
 the Gaussian 92(TM) system (copyright 1992, Gaussian, Inc.),
 the Gaussian 90(TM) system (copyright 1990, Gaussian, Inc.),
 the Gaussian 88(TM) system (copyright 1988, Gaussian, Inc.),
 the Gaussian 86(TM) system (copyright 1986, Carnegie Mellon
 University), and the Gaussian 82(TM) system (copyright 1983,
 Carnegie Mellon University). Gaussian is a federally registered
 trademark of Gaussian, Inc.
  
 This software contains proprietary and confidential information,
 including trade secrets, belonging to Gaussian, Inc.
  
 This software is provided under written license and may be
 used, copied, transmitted, or stored only in accord with that
 written license.
  
 The following legend is applicable only to US Government
 contracts under FAR:
  
                    RESTRICTED RIGHTS LEGEND
  
 Use, reproduction and disclosure by the US Government is
 subject to restrictions as set forth in subparagraphs (a)
 and (c) of the Commercial Computer Software - Restricted
 Rights clause in FAR 52.227-19.
  
 Gaussian, Inc.
 340 Quinnipiac St., Bldg. 40, Wallingford CT 06492
  
  
 ---------------------------------------------------------------
 Warning -- This program may not be used in any manner that
 competes with the business of Gaussian, Inc. or will provide
 assistance to any competitor of Gaussian, Inc.  The licensee
 of this program is prohibited from giving any competitor of
 Gaussian, Inc. access to this program.  By using this program,
 the user acknowledges that Gaussian, Inc. is engaged in the
 business of creating and licensing software in the field of
 computational chemistry and represents and warrants to the
 licensee that it is not a competitor of Gaussian, Inc. and that
 it will not use this program in any manner prohibited above.
 ---------------------------------------------------------------
  

 Cite this work as:
 Gaussian 16, Revision B.01,
 M. J. Frisch, G. W. Trucks, H. B. Schlegel, G. E. Scuseria, 
 M. A. Robb, J. R. Cheeseman, G. Scalmani, V. Barone, 
 G. A. Petersson, H. Nakatsuji, X. Li, M. Caricato, A. V. Marenich, 
 J. Bloino, B. G. Janesko, R. Gomperts, B. Mennucci, H. P. Hratchian, 
 J. V. Ortiz, A. F. Izmaylov, J. L. Sonnenberg, D. Williams-Young, 
 F. Ding, F. Lipparini, F. Egidi, J. Goings, B. Peng, A. Petrone, 
 T. Henderson, D. Ranasinghe, V. G. Zakrzewski, J. Gao, N. Rega, 
 G. Zheng, W. Liang, M. Hada, M. Ehara, K. Toyota, R. Fukuda, 
 J. Hasegawa, M. Ishida, T. Nakajima, Y. Honda, O. Kitao, H. Nakai, 
 T. Vreven, K. Throssell, J. A. Montgomery, Jr., J. E. Peralta, 
 F. Ogliaro, M. J. Bearpark, J. J. Heyd, E. N. Brothers, K. N. Kudin, 
 V. N. Staroverov, T. A. Keith, R. Kobayashi, J. Normand, 
 K. Raghavachari, A. P. Rendell, J. C. Burant, S. S. Iyengar, 
 J. Tomasi, M. Cossi, J. M. Millam, M. Klene, C. Adamo, R. Cammi, 
 J. W. Ochterski, R. L. Martin, K. Morokuma, O. Farkas, 
 J. B. Foresman, and D. J. Fox, Gaussian, Inc., Wallingford CT, 2016.
 
 ******************************************
 Gaussian 16:  ES64L-G16RevB.01 20-Dec-2017
                20-Oct-2019 
 ******************************************
 %nprocshared=2
 Will use up to    2 processors via shared memory.
 %mem=6GB
 %chk=C3.chk
 ------------------------------------------------
 # opt=modredundant b3lyp/3-21g geom=connectivity
 ------------------------------------------------
 1/18=120,19=15,26=3,38=1,57=2/1,3;
 2/9=110,12=2,17=6,18=5,40=1/2;
 3/5=5,11=2,25=1,30=1,71=1,74=-5/1,2,3;
 4//1;
 5/5=2,38=5/2;
 6/7=2,8=2,9=2,10=2,28=1/1;
 7//1,2,3,16;
 1/18=20,19=15,26=3/3(2);
 2/9=110/2;
 99//99;
 2/9=110/2;
 3/5=5,11=2,25=1,30=1,71=1,74=-5/1,2,3;
 4/5=5,16=3,69=1/1;
 5/5=2,38=5/2;
 7//1,2,3,16;
 1/18=20,19=15,26=3/3(-5);
 2/9=110/2;
 6/7=2,8=2,9=2,10=2,19=2,28=1/1;
 99/9=1/99;
 -------------------
 Title Card Required
 -------------------
 Symbolic Z-matrix:
 Charge =  0 Multiplicity = 1
 C                    -0.79369   1.18537  -0.33569 
 C                    -1.11924   0.73143   0.89728 
 C                    -1.11909  -0.73982   0.89047 
 C                    -0.79293  -1.18231  -0.34652 
 H                    -0.72426   2.21635  -0.65178 
 H                    -1.32329   1.33641   1.76992 
 H                    -1.32313  -1.35292   1.75743 
 H                    -0.7233   -2.21038  -0.67191 
 C                    -0.66368   0.00577  -1.28383 
 H                    -1.50946   0.00868  -1.99091 
 H                     0.26287   0.00925  -1.8612 
 C                     1.43337   0.77313   0.0646 
 H                     1.84769   1.23853   1.0734 
 H                     2.2045    1.24206  -0.73138 
 C                     1.43312  -0.77349   0.0628 
 H                     2.20406  -1.24443  -0.73004 
 H                     1.84698  -1.23871   1.0746 
 
 Add virtual bond connecting atoms C12        and C1         Dist= 4.35D+00.
 Add virtual bond connecting atoms C12        and H11        Dist= 4.50D+00.
 Add virtual bond connecting atoms C15        and C4         Dist= 4.35D+00.
 Add virtual bond connecting atoms C15        and H11        Dist= 4.51D+00.
 The following ModRedundant input section has been read:
 B       4      15 F                                                           
 B       1      12 F                                                           
 

 GradGradGradGradGradGradGradGradGradGradGradGradGradGradGradGradGradGrad
 Berny optimization.
 Initialization pass.
                           ----------------------------
                           !    Initial Parameters    !
                           ! (Angstroms and Degrees)  !
 --------------------------                            --------------------------
 ! Name  Definition              Value          Derivative Info.                !
 --------------------------------------------------------------------------------
 ! R1    R(1,2)                  1.3536         estimate D2E/DX2                !
 ! R2    R(1,5)                  1.0806         estimate D2E/DX2                !
 ! R3    R(1,9)                  1.519          estimate D2E/DX2                !
 ! R4    R(1,12)                 2.3            Frozen                          !
 ! R5    R(2,3)                  1.4713         estimate D2E/DX2                !
 ! R6    R(2,6)                  1.0813         estimate D2E/DX2                !
 ! R7    R(3,4)                  1.3536         estimate D2E/DX2                !
 ! R8    R(3,7)                  1.0813         estimate D2E/DX2                !
 ! R9    R(4,8)                  1.0806         estimate D2E/DX2                !
 ! R10   R(4,9)                  1.5188         estimate D2E/DX2                !
 ! R11   R(4,15)                 2.3            Frozen                          !
 ! R12   R(9,10)                 1.1024         estimate D2E/DX2                !
 ! R13   R(9,11)                 1.0917         estimate D2E/DX2                !
 ! R14   R(11,12)                2.3796         estimate D2E/DX2                !
 ! R15   R(11,15)                2.3841         estimate D2E/DX2                !
 ! R16   R(12,13)                1.1857         estimate D2E/DX2                !
 ! R17   R(12,14)                1.2034         estimate D2E/DX2                !
 ! R18   R(12,15)                1.5466         estimate D2E/DX2                !
 ! R19   R(15,16)                1.202          estimate D2E/DX2                !
 ! R20   R(15,17)                1.188          estimate D2E/DX2                !
 ! A1    A(2,1,5)              127.0035         estimate D2E/DX2                !
 ! A2    A(2,1,9)              109.191          estimate D2E/DX2                !
 ! A3    A(2,1,12)              90.816          estimate D2E/DX2                !
 ! A4    A(5,1,9)              123.5619         estimate D2E/DX2                !
 ! A5    A(5,1,12)              99.1894         estimate D2E/DX2                !
 ! A6    A(9,1,12)              83.4866         estimate D2E/DX2                !
 ! A7    A(1,2,3)              109.3362         estimate D2E/DX2                !
 ! A8    A(1,2,6)              126.362          estimate D2E/DX2                !
 ! A9    A(3,2,6)              124.281          estimate D2E/DX2                !
 ! A10   A(2,3,4)              109.3381         estimate D2E/DX2                !
 ! A11   A(2,3,7)              124.2827         estimate D2E/DX2                !
 ! A12   A(4,3,7)              126.358          estimate D2E/DX2                !
 ! A13   A(3,4,8)              126.9922         estimate D2E/DX2                !
 ! A14   A(3,4,9)              109.1931         estimate D2E/DX2                !
 ! A15   A(3,4,15)              90.7143         estimate D2E/DX2                !
 ! A16   A(8,4,9)              123.5673         estimate D2E/DX2                !
 ! A17   A(8,4,15)              99.2262         estimate D2E/DX2                !
 ! A18   A(9,4,15)              83.5936         estimate D2E/DX2                !
 ! A19   A(1,9,4)              102.4141         estimate D2E/DX2                !
 ! A20   A(1,9,10)             109.4285         estimate D2E/DX2                !
 ! A21   A(1,9,11)             113.5958         estimate D2E/DX2                !
 ! A22   A(4,9,10)             109.4265         estimate D2E/DX2                !
 ! A23   A(4,9,11)             113.6469         estimate D2E/DX2                !
 ! A24   A(10,9,11)            108.1745         estimate D2E/DX2                !
 ! A25   A(9,11,12)             89.4546         estimate D2E/DX2                !
 ! A26   A(9,11,15)             89.3549         estimate D2E/DX2                !
 ! A27   A(1,12,11)             55.9709         estimate D2E/DX2                !
 ! A28   A(1,12,13)            114.586          estimate D2E/DX2                !
 ! A29   A(1,12,14)            115.8185         estimate D2E/DX2                !
 ! A30   A(1,12,15)            100.3042         estimate D2E/DX2                !
 ! A31   A(11,12,14)            84.5475         estimate D2E/DX2                !
 ! A32   A(13,12,14)           100.714          estimate D2E/DX2                !
 ! A33   A(13,12,15)           113.1754         estimate D2E/DX2                !
 ! A34   A(14,12,15)           112.8929         estimate D2E/DX2                !
 ! A35   A(4,15,11)             55.9207         estimate D2E/DX2                !
 ! A36   A(4,15,12)            100.2598         estimate D2E/DX2                !
 ! A37   A(4,15,16)            115.7052         estimate D2E/DX2                !
 ! A38   A(4,15,17)            114.7789         estimate D2E/DX2                !
 ! A39   A(11,15,16)            84.9023         estimate D2E/DX2                !
 ! A40   A(12,15,16)           113.1081         estimate D2E/DX2                !
 ! A41   A(12,15,17)           112.988          estimate D2E/DX2                !
 ! A42   A(16,15,17)           100.6558         estimate D2E/DX2                !
 ! A43   L(11,12,13,1,-1)      170.5569         estimate D2E/DX2                !
 ! A44   L(11,15,17,4,-1)      170.6996         estimate D2E/DX2                !
 ! A45   L(11,12,13,1,-2)      180.3586         estimate D2E/DX2                !
 ! A46   L(11,15,17,4,-2)      180.2251         estimate D2E/DX2                !
 ! D1    D(5,1,2,3)            179.0338         estimate D2E/DX2                !
 ! D2    D(5,1,2,6)             -2.5772         estimate D2E/DX2                !
 ! D3    D(9,1,2,3)              4.5857         estimate D2E/DX2                !
 ! D4    D(9,1,2,6)           -177.0253         estimate D2E/DX2                !
 ! D5    D(12,1,2,3)           -78.8012         estimate D2E/DX2                !
 ! D6    D(12,1,2,6)            99.5878         estimate D2E/DX2                !
 ! D7    D(2,1,9,4)             -6.9373         estimate D2E/DX2                !
 ! D8    D(2,1,9,10)           109.0877         estimate D2E/DX2                !
 ! D9    D(2,1,9,11)          -129.9156         estimate D2E/DX2                !
 ! D10   D(5,1,9,4)            178.3828         estimate D2E/DX2                !
 ! D11   D(5,1,9,10)           -65.5922         estimate D2E/DX2                !
 ! D12   D(5,1,9,11)            55.4045         estimate D2E/DX2                !
 ! D13   D(12,1,9,4)            81.6553         estimate D2E/DX2                !
 ! D14   D(12,1,9,10)         -162.3197         estimate D2E/DX2                !
 ! D15   D(12,1,9,11)          -41.323          estimate D2E/DX2                !
 ! D16   D(2,1,12,11)          128.7951         estimate D2E/DX2                !
 ! D17   D(2,1,12,13)          -51.5635         estimate D2E/DX2                !
 ! D18   D(2,1,12,14)         -168.2097         estimate D2E/DX2                !
 ! D19   D(2,1,12,15)           69.9744         estimate D2E/DX2                !
 ! D20   D(5,1,12,11)         -103.4667         estimate D2E/DX2                !
 ! D21   D(5,1,12,13)           76.1747         estimate D2E/DX2                !
 ! D22   D(5,1,12,14)          -40.4715         estimate D2E/DX2                !
 ! D23   D(5,1,12,15)         -162.2874         estimate D2E/DX2                !
 ! D24   D(9,1,12,11)           19.5712         estimate D2E/DX2                !
 ! D25   D(9,1,12,13)         -160.7874         estimate D2E/DX2                !
 ! D26   D(9,1,12,14)           82.5664         estimate D2E/DX2                !
 ! D27   D(9,1,12,15)          -39.2495         estimate D2E/DX2                !
 ! D28   D(1,2,3,4)              0.024          estimate D2E/DX2                !
 ! D29   D(1,2,3,7)            178.4371         estimate D2E/DX2                !
 ! D30   D(6,2,3,4)           -178.4059         estimate D2E/DX2                !
 ! D31   D(6,2,3,7)              0.0072         estimate D2E/DX2                !
 ! D32   D(2,3,4,8)           -179.0282         estimate D2E/DX2                !
 ! D33   D(2,3,4,9)             -4.6237         estimate D2E/DX2                !
 ! D34   D(2,3,4,15)            78.841          estimate D2E/DX2                !
 ! D35   D(7,3,4,8)              2.6            estimate D2E/DX2                !
 ! D36   D(7,3,4,9)            177.0045         estimate D2E/DX2                !
 ! D37   D(7,3,4,15)           -99.5308         estimate D2E/DX2                !
 ! D38   D(3,4,9,1)              6.9522         estimate D2E/DX2                !
 ! D39   D(3,4,9,10)          -109.0743         estimate D2E/DX2                !
 ! D40   D(3,4,9,11)           129.8961         estimate D2E/DX2                !
 ! D41   D(8,4,9,1)           -178.4109         estimate D2E/DX2                !
 ! D42   D(8,4,9,10)            65.5627         estimate D2E/DX2                !
 ! D43   D(8,4,9,11)           -55.4669         estimate D2E/DX2                !
 ! D44   D(15,4,9,1)           -81.5694         estimate D2E/DX2                !
 ! D45   D(15,4,9,10)          162.4042         estimate D2E/DX2                !
 ! D46   D(15,4,9,11)           41.3746         estimate D2E/DX2                !
 ! D47   D(3,4,15,11)         -128.7923         estimate D2E/DX2                !
 ! D48   D(3,4,15,12)          -70.3957         estimate D2E/DX2                !
 ! D49   D(3,4,15,16)          167.6135         estimate D2E/DX2                !
 ! D50   D(3,4,15,17)           50.9826         estimate D2E/DX2                !
 ! D51   D(8,4,15,11)          103.4978         estimate D2E/DX2                !
 ! D52   D(8,4,15,12)          161.8944         estimate D2E/DX2                !
 ! D53   D(8,4,15,16)           39.9035         estimate D2E/DX2                !
 ! D54   D(8,4,15,17)          -76.7274         estimate D2E/DX2                !
 ! D55   D(9,4,15,11)          -19.5573         estimate D2E/DX2                !
 ! D56   D(9,4,15,12)           38.8394         estimate D2E/DX2                !
 ! D57   D(9,4,15,16)          -83.1515         estimate D2E/DX2                !
 ! D58   D(9,4,15,17)          160.2176         estimate D2E/DX2                !
 ! D59   D(1,9,11,12)           39.3559         estimate D2E/DX2                !
 ! D60   D(1,9,11,15)           77.2489         estimate D2E/DX2                !
 ! D61   D(4,9,11,12)          -77.2181         estimate D2E/DX2                !
 ! D62   D(4,9,11,15)          -39.325          estimate D2E/DX2                !
 ! D63   D(10,9,11,12)         161.0534         estimate D2E/DX2                !
 ! D64   D(10,9,11,15)        -161.0535         estimate D2E/DX2                !
 ! D65   D(9,11,12,1)          -27.5866         estimate D2E/DX2                !
 ! D66   D(9,11,12,14)        -153.911          estimate D2E/DX2                !
 ! D67   D(9,11,15,4)           27.5695         estimate D2E/DX2                !
 ! D68   D(9,11,15,16)         153.4506         estimate D2E/DX2                !
 ! D69   D(1,12,15,4)            0.2065         estimate D2E/DX2                !
 ! D70   D(1,12,15,16)         124.019          estimate D2E/DX2                !
 ! D71   D(1,12,15,17)        -122.4403         estimate D2E/DX2                !
 ! D72   D(13,12,15,4)         122.7425         estimate D2E/DX2                !
 ! D73   D(13,12,15,16)       -113.445          estimate D2E/DX2                !
 ! D74   D(13,12,15,17)          0.0957         estimate D2E/DX2                !
 ! D75   D(14,12,15,4)        -123.6614         estimate D2E/DX2                !
 ! D76   D(14,12,15,16)          0.1511         estimate D2E/DX2                !
 ! D77   D(14,12,15,17)        113.6918         estimate D2E/DX2                !
 --------------------------------------------------------------------------------
 Trust Radius=3.00D-01 FncErr=1.00D-07 GrdErr=1.00D-06 EigMax=2.50D+02 EigMin=1.00D-04
 Number of steps in this run=    102 maximum allowed number of steps=    102.
 GradGradGradGradGradGradGradGradGradGradGradGradGradGradGradGradGradGrad

                          Input orientation:                          
 ---------------------------------------------------------------------
 Center     Atomic      Atomic             Coordinates (Angstroms)
 Number     Number       Type             X           Y           Z
 ---------------------------------------------------------------------
      1          6           0       -0.793692    1.185372   -0.335690
      2          6           0       -1.119238    0.731433    0.897277
      3          6           0       -1.119089   -0.739821    0.890465
      4          6           0       -0.792932   -1.182308   -0.346523
      5          1           0       -0.724258    2.216348   -0.651778
      6          1           0       -1.323294    1.336406    1.769924
      7          1           0       -1.323127   -1.352915    1.757429
      8          1           0       -0.723300   -2.210380   -0.671910
      9          6           0       -0.663676    0.005770   -1.283827
     10          1           0       -1.509459    0.008682   -1.990906
     11          1           0        0.262871    0.009247   -1.861203
     12          6           0        1.433374    0.773131    0.064600
     13          1           0        1.847686    1.238528    1.073403
     14          1           0        2.204501    1.242055   -0.731379
     15          6           0        1.433123   -0.773489    0.062803
     16          1           0        2.204064   -1.244430   -0.730043
     17          1           0        1.846983   -1.238710    1.074604
 ---------------------------------------------------------------------
                    Distance matrix (angstroms):
                    1          2          3          4          5
     1  C    0.000000
     2  C    1.353606   0.000000
     3  C    2.305582   1.471270   0.000000
     4  C    2.367705   2.305628   1.353629   0.000000
     5  H    1.080576   2.181869   3.357580   3.413028   0.000000
     6  H    2.176442   1.081270   2.264038   3.332349   2.645332
     7  H    3.332319   2.264054   1.081269   2.176425   4.347708
     8  H    3.413082   3.357585   2.181790   1.080582   4.426774
     9  C    1.518989   2.343360   2.343257   1.518807   2.299959
    10  H    2.153291   3.002706   3.002490   2.153106   2.698813
    11  H    2.196995   3.168752   3.169005   2.197448   2.703410
    12  C    2.300000   2.685316   3.079959   2.991522   2.692852
    13  H    2.994202   3.015096   3.570586   3.853505   3.247657
    14  H    3.024722   3.736375   4.195767   3.874307   3.087590
    15  C    2.992430   3.078260   2.683271   2.300000   3.755535
    16  H    3.878916   4.194823   3.731491   3.022074   4.534113
    17  H    3.852047   3.565302   3.013367   2.998655   4.639946
                    6          7          8          9         10
     6  H    0.000000
     7  H    2.689350   0.000000
     8  H    4.347670   2.645133   0.000000
     9  C    3.395745   3.395606   2.299852   0.000000
    10  H    3.992662   3.992328   2.698524   1.102415   0.000000
    11  H    4.178798   4.179159   2.704384   1.091725   1.777070
    12  C    3.290080   3.870923   3.754335   2.608586   3.670117
    13  H    3.248051   4.151810   4.642311   3.658301   4.708814
    14  H    4.325593   5.037082   4.527125   3.171756   4.111097
    15  C    3.868301   3.287005   2.693440   2.610981   3.672642
    16  H    5.035157   4.317449   3.083164   3.177044   4.117076
    17  H    4.143109   3.244825   3.255888   3.662559   4.713708
                   11         12         13         14         15
    11  H    0.000000
    12  C    2.379562   0.000000
    13  H    3.554530   1.185720   0.000000
    14  H    2.562469   1.203374   1.839719   0.000000
    15  C    2.384107   1.546622   2.289408   2.299602   0.000000
    16  H    2.572831   2.301298   3.089418   2.486485   1.201974
    17  H    3.561709   2.288817   2.477238   3.089270   1.188045
                   16         17
    16  H    0.000000
    17  H    1.839644   0.000000
 Stoichiometry    C7H10
 Framework group  C1[X(C7H10)]
 Deg. of freedom    45
 Full point group                 C1      NOp   1
 Largest Abelian subgroup         C1      NOp   1
 Largest concise Abelian subgroup C1      NOp   1
                         Standard orientation:                         
 ---------------------------------------------------------------------
 Center     Atomic      Atomic             Coordinates (Angstroms)
 Number     Number       Type             X           Y           Z
 ---------------------------------------------------------------------
      1          6           0       -0.627266   -1.185152    0.372660
      2          6           0       -1.066321   -0.732755   -0.825179
      3          6           0       -1.066236    0.738506   -0.820049
      4          6           0       -0.626623    1.182539    0.380737
      5          1           0       -0.528239   -2.215737    0.682065
      6          1           0       -1.350390   -1.338809   -1.674383
      7          1           0       -1.350335    1.350525   -1.664953
      8          1           0       -0.527509    2.211011    0.697089
      9          6           0       -0.410165   -0.004409    1.303274
     10          1           0       -1.186498   -0.006817    2.085975
     11          1           0        0.566079   -0.006880    1.791950
     12          6           0        1.552706   -0.772553   -0.233544
     13          1           0        1.871590   -1.238961   -1.275997
     14          1           0        2.394762   -1.240275    0.487765
     15          6           0        1.551890    0.774068   -0.233454
     16          1           0        2.393025    1.246206    0.483706
     17          1           0        1.869605    1.238274   -1.279887
 ---------------------------------------------------------------------
 Rotational constants (GHZ):           3.6096826           2.8033604           2.5058890
 Standard basis: 3-21G (6D, 7F)
 There are    83 symmetry adapted cartesian basis functions of A   symmetry.
 There are    83 symmetry adapted basis functions of A   symmetry.
    83 basis functions,   135 primitive gaussians,    83 cartesian basis functions
    26 alpha electrons       26 beta electrons
       nuclear repulsion energy       289.9973975441 Hartrees.
 NAtoms=   17 NActive=   17 NUniq=   17 SFac= 1.00D+00 NAtFMM=   60 NAOKFM=F Big=F
 Integral buffers will be    131072 words long.
 Raffenetti 2 integral format.
 Two-electron integral symmetry is turned on.
 One-electron integrals computed using PRISM.
 NBasis=    83 RedAO= T EigKep=  4.36D-03  NBF=    83
 NBsUse=    83 1.00D-06 EigRej= -1.00D+00 NBFU=    83
 ExpMin= 1.83D-01 ExpMax= 1.72D+02 ExpMxC= 1.72D+02 IAcc=3 IRadAn=         5 AccDes= 0.00D+00
 Harris functional with IExCor=  402 and IRadAn=       5 diagonalized for initial guess.
 HarFok:  IExCor=  402 AccDes= 0.00D+00 IRadAn=         5 IDoV= 1 UseB2=F ITyADJ=14
 ICtDFT=  3500011 ScaDFX=  1.000000  1.000000  1.000000  1.000000
 FoFCou: FMM=F IPFlag=           0 FMFlag=      100000 FMFlg1=           0
         NFxFlg=           0 DoJE=T BraDBF=F KetDBF=T FulRan=T
         wScrn=  0.000000 ICntrl=       500 IOpCl=  0 I1Cent=   200000004 NGrid=           0
         NMat0=    1 NMatS0=      1 NMatT0=    0 NMatD0=    1 NMtDS0=    0 NMtDT0=    0
 Petite list used in FoFCou.
 Keep R1 ints in memory in canonical form, NReq=7891734.
 Requested convergence on RMS density matrix=1.00D-08 within 128 cycles.
 Requested convergence on MAX density matrix=1.00D-06.
 Requested convergence on             energy=1.00D-06.
 No special actions if energy rises.
 Integral accuracy reduced to 1.0D-05 until final iterations.
 Initial convergence to 1.0D-05 achieved.  Increase integral accuracy.
 SCF Done:  E(RB3LYP) =  -271.088960569     A.U. after   13 cycles
            NFock= 13  Conv=0.86D-08     -V/T= 2.0111

 **********************************************************************

            Population analysis using the SCF Density.

 **********************************************************************

 Orbital symmetries:
       Occupied  (A) (A) (A) (A) (A) (A) (A) (A) (A) (A) (A) (A)
                 (A) (A) (A) (A) (A) (A) (A) (A) (A) (A) (A) (A)
                 (A) (A)
       Virtual   (A) (A) (A) (A) (A) (A) (A) (A) (A) (A) (A) (A)
                 (A) (A) (A) (A) (A) (A) (A) (A) (A) (A) (A) (A)
                 (A) (A) (A) (A) (A) (A) (A) (A) (A) (A) (A) (A)
                 (A) (A) (A) (A) (A) (A) (A) (A) (A) (A) (A) (A)
                 (A) (A) (A) (A) (A) (A) (A) (A) (A)
 The electronic state is 1-A.
 Alpha  occ. eigenvalues --  -10.13973 -10.13925 -10.12851 -10.12764 -10.12462
 Alpha  occ. eigenvalues --  -10.12332 -10.12218  -0.86788  -0.71793  -0.70741
 Alpha  occ. eigenvalues --   -0.68789  -0.55579  -0.54127  -0.52737  -0.52049
 Alpha  occ. eigenvalues --   -0.44834  -0.40946  -0.39046  -0.38187  -0.36438
 Alpha  occ. eigenvalues --   -0.36298  -0.35235  -0.30426  -0.29565  -0.24617
 Alpha  occ. eigenvalues --   -0.18891
 Alpha virt. eigenvalues --   -0.01874   0.00110   0.10104   0.12135   0.12647
 Alpha virt. eigenvalues --    0.14230   0.17614   0.18627   0.18888   0.19164
 Alpha virt. eigenvalues --    0.19508   0.20996   0.21389   0.24393   0.25402
 Alpha virt. eigenvalues --    0.28788   0.37746   0.40005   0.46649   0.67622
 Alpha virt. eigenvalues --    0.69013   0.71003   0.72359   0.72449   0.75964
 Alpha virt. eigenvalues --    0.76788   0.79058   0.80119   0.81480   0.82420
 Alpha virt. eigenvalues --    0.87943   0.90276   0.92201   0.96951   0.97190
 Alpha virt. eigenvalues --    0.98513   0.98910   1.00972   1.02715   1.04200
 Alpha virt. eigenvalues --    1.05505   1.05792   1.06942   1.07678   1.11331
 Alpha virt. eigenvalues --    1.15897   1.21715   1.31745   1.36026   1.40520
 Alpha virt. eigenvalues --    1.43088   1.70362   1.81637   1.91768   2.12861
 Alpha virt. eigenvalues --    2.18555   2.33544
          Condensed to atoms (all electrons):
               1          2          3          4          5          6
     1  C    5.295303   0.441130  -0.105287  -0.116238   0.393456  -0.038894
     2  C    0.441130   5.187986   0.460326  -0.105291  -0.034993   0.390092
     3  C   -0.105287   0.460326   5.187992   0.441036   0.003915  -0.030270
     4  C   -0.116238  -0.105291   0.441036   5.295531   0.002851   0.003490
     5  H    0.393456  -0.034993   0.003915   0.002851   0.475972  -0.002053
     6  H   -0.038894   0.390092  -0.030270   0.003490  -0.002053   0.493140
     7  H    0.003490  -0.030250   0.390075  -0.038897  -0.000047  -0.000889
     8  H    0.002853   0.003913  -0.034985   0.393441  -0.000027  -0.000047
     9  C    0.325216  -0.125835  -0.125880   0.325121  -0.028896   0.004433
    10  H   -0.040995   0.003280   0.003269  -0.040954  -0.000622  -0.000108
    11  H   -0.032998   0.003303   0.003306  -0.032925  -0.000451  -0.000069
    12  C    0.072191  -0.031623  -0.019527  -0.020063  -0.005189  -0.000177
    13  H   -0.005074  -0.002526   0.000397   0.000607   0.000001   0.000111
    14  H   -0.002385   0.000277   0.000271   0.000788   0.000169   0.000000
    15  C   -0.020003  -0.019615  -0.031832   0.072220   0.000008  -0.000077
    16  H    0.000785   0.000271   0.000270  -0.002435  -0.000001   0.000000
    17  H    0.000602   0.000397  -0.002519  -0.005021  -0.000001   0.000001
               7          8          9         10         11         12
     1  C    0.003490   0.002853   0.325216  -0.040995  -0.032998   0.072191
     2  C   -0.030250   0.003913  -0.125835   0.003280   0.003303  -0.031623
     3  C    0.390075  -0.034985  -0.125880   0.003269   0.003306  -0.019527
     4  C   -0.038897   0.393441   0.325121  -0.040954  -0.032925  -0.020063
     5  H   -0.000047  -0.000027  -0.028896  -0.000622  -0.000451  -0.005189
     6  H   -0.000889  -0.000047   0.004433  -0.000108  -0.000069  -0.000177
     7  H    0.493057  -0.002053   0.004433  -0.000108  -0.000069  -0.000077
     8  H   -0.002053   0.475968  -0.028905  -0.000622  -0.000451   0.000007
     9  C    0.004433  -0.028905   5.425668   0.337903   0.375342  -0.041310
    10  H   -0.000108  -0.000622   0.337903   0.550096  -0.024263   0.003164
    11  H   -0.000069  -0.000451   0.375342  -0.024263   0.486608  -0.008109
    12  C   -0.000077   0.000007  -0.041310   0.003164  -0.008109   5.421898
    13  H    0.000001  -0.000001   0.000736  -0.000015   0.000219   0.355680
    14  H    0.000000  -0.000001  -0.001265  -0.000002   0.000412   0.343614
    15  C   -0.000181  -0.005187  -0.040939   0.003141  -0.008131   0.383994
    16  H    0.000000   0.000172  -0.001206  -0.000003   0.000381  -0.037773
    17  H    0.000113   0.000001   0.000728  -0.000015   0.000219  -0.037938
              13         14         15         16         17
     1  C   -0.005074  -0.002385  -0.020003   0.000785   0.000602
     2  C   -0.002526   0.000277  -0.019615   0.000271   0.000397
     3  C    0.000397   0.000271  -0.031832   0.000270  -0.002519
     4  C    0.000607   0.000788   0.072220  -0.002435  -0.005021
     5  H    0.000001   0.000169   0.000008  -0.000001  -0.000001
     6  H    0.000111   0.000000  -0.000077   0.000000   0.000001
     7  H    0.000001   0.000000  -0.000181   0.000000   0.000113
     8  H   -0.000001  -0.000001  -0.005187   0.000172   0.000001
     9  C    0.000736  -0.001265  -0.040939  -0.001206   0.000728
    10  H   -0.000015  -0.000002   0.003141  -0.000003  -0.000015
    11  H    0.000219   0.000412  -0.008131   0.000381   0.000219
    12  C    0.355680   0.343614   0.383994  -0.037773  -0.037938
    13  H    0.582887  -0.045654  -0.037755   0.003262  -0.004809
    14  H   -0.045654   0.599049  -0.038021  -0.004238   0.003289
    15  C   -0.037755  -0.038021   5.421622   0.343749   0.355342
    16  H    0.003262  -0.004238   0.343749   0.597951  -0.045694
    17  H   -0.004809   0.003289   0.355342  -0.045694   0.584269
 Mulliken charges:
               1
     1  C   -0.173150
     2  C   -0.140843
     3  C   -0.140558
     4  C   -0.173260
     5  H    0.195907
     6  H    0.181317
     7  H    0.181402
     8  H    0.195924
     9  C   -0.405345
    10  H    0.206855
    11  H    0.237675
    12  C   -0.378763
    13  H    0.151931
    14  H    0.143697
    15  C   -0.378333
    16  H    0.144508
    17  H    0.151037
 Sum of Mulliken charges =  -0.00000
 Mulliken charges with hydrogens summed into heavy atoms:
               1
     1  C    0.022757
     2  C    0.040474
     3  C    0.040844
     4  C    0.022664
     9  C    0.039184
    12  C   -0.083134
    15  C   -0.082789
 Electronic spatial extent (au):  <R**2>=            671.2817
 Charge=             -0.0000 electrons
 Dipole moment (field-independent basis, Debye):
    X=             -0.4562    Y=              0.0020    Z=              0.3227  Tot=              0.5588
 Quadrupole moment (field-independent basis, Debye-Ang):
   XX=            -45.5315   YY=            -41.6304   ZZ=            -41.2873
   XY=             -0.0004   XZ=              1.0289   YZ=              0.0093
 Traceless Quadrupole moment (field-independent basis, Debye-Ang):
   XX=             -2.7151   YY=              1.1860   ZZ=              1.5291
   XY=             -0.0004   XZ=              1.0289   YZ=              0.0093
 Octapole moment (field-independent basis, Debye-Ang**2):
  XXX=              5.2007  YYY=             -0.0015  ZZZ=             -1.3820  XYY=             -3.4726
  XXY=              0.0247  XXZ=             -0.3747  XZZ=             -3.0913  YZZ=              0.0008
  YYZ=              0.3092  XYZ=              0.0174
 Hexadecapole moment (field-independent basis, Debye-Ang**3):
 XXXX=           -426.6533 YYYY=           -268.6564 ZZZZ=           -218.2229 XXXY=              0.0296
 XXXZ=              4.4628 YYYX=             -0.0085 YYYZ=              0.0651 ZZZX=              4.1661
 ZZZY=              0.0373 XXYY=           -114.0401 XXZZ=            -98.6879 YYZZ=            -79.1595
 XXYZ=              0.0037 YYXZ=              2.2920 ZZXY=             -0.0145
 N-N= 2.899973975441D+02 E-N=-1.206689055652D+03  KE= 2.681188064506D+02
 Calling FoFJK, ICntrl=      2127 FMM=F ISym2X=0 I1Cent= 0 IOpClX= 0 NMat=1 NMatS=1 NMatT=0.
 ***** Axes restored to original set *****
 -------------------------------------------------------------------
 Center     Atomic                   Forces (Hartrees/Bohr)
 Number     Number              X              Y              Z
 -------------------------------------------------------------------
      1        6           0.049209789    0.004327471   -0.019305218
      2        6          -0.024764641   -0.044035351    0.030429729
      3        6          -0.024724759    0.043803070    0.030860029
      4        6           0.049135417   -0.004205604   -0.019256791
      5        1          -0.003872021   -0.000854354   -0.000920533
      6        1           0.001329533   -0.000601138   -0.000069527
      7        1           0.001342368    0.000598743   -0.000063593
      8        1          -0.003860242    0.000859366   -0.000910988
      9        6          -0.022398201    0.000133943   -0.021846174
     10        1          -0.003533106   -0.000022100   -0.000378438
     11        1          -0.007226106   -0.000063992   -0.001489682
     12        6           0.077575220   -0.031622520    0.014584094
     13        1          -0.035505781   -0.017009865   -0.031282525
     14        1          -0.047304726   -0.019505166    0.017946672
     15        6           0.077450894    0.031421271    0.016250547
     16        1          -0.047044223    0.019731779    0.017467536
     17        1          -0.035809415    0.017044449   -0.032015138
 -------------------------------------------------------------------
 Cartesian Forces:  Max     0.077575220 RMS     0.027693986

 GradGradGradGradGradGradGradGradGradGradGradGradGradGradGradGradGradGrad
 Berny optimization.
 FormGI is forming the generalized inverse of G from B-inverse, IUseBI=4.
 Internal  Forces:  Max     0.054990317 RMS     0.011561710
 Search for a local minimum.
 Step number   1 out of a maximum of  102
 All quantities printed in internal units (Hartrees-Bohrs-Radians)
 Mixed Optimization -- RFO/linear search
 Second derivative matrix not updated -- first step.
 ITU=  0
     Eigenvalues ---    0.00856   0.01913   0.02277   0.02344   0.02407
     Eigenvalues ---    0.02699   0.02708   0.03069   0.03127   0.03379
     Eigenvalues ---    0.04349   0.04721   0.04943   0.05181   0.05451
     Eigenvalues ---    0.05617   0.05968   0.06311   0.06584   0.06931
     Eigenvalues ---    0.07013   0.07828   0.12256   0.12928   0.14172
     Eigenvalues ---    0.15986   0.15992   0.20984   0.23243   0.24421
     Eigenvalues ---    0.24522   0.25440   0.25559   0.25738   0.28651
     Eigenvalues ---    0.32750   0.33416   0.35841   0.35841   0.35924
     Eigenvalues ---    0.35925   0.45317   0.529921000.000001000.00000
     Eigenvalues --- 1000.000001000.000001000.000001000.000001000.00000
     Eigenvalues --- 1000.000001000.000001000.000001000.000001000.00000
     Eigenvalues --- 1000.000001000.000001000.000001000.000001000.00000
     Eigenvalues --- 1000.000001000.000001000.000001000.000001000.00000
     Eigenvalues --- 1000.000001000.000001000.000001000.000001000.00000
     Eigenvalues --- 1000.000001000.000001000.000001000.000001000.00000
     Eigenvalues --- 1000.000001000.000001000.000001000.000001000.00000
     Eigenvalues --- 1000.000001000.000001000.000001000.000001000.00000
     Eigenvalues --- 1000.000001000.000001000.000001000.000001000.00000
     Eigenvalues --- 1000.000001000.000001000.000001000.000001000.00000
     Eigenvalues --- 1000.000001000.000001000.000001000.000001000.00000
     Eigenvalues --- 1000.000001000.000001000.000001000.000001000.00000
     Eigenvalues --- 1000.000001000.000001000.000001000.000001000.00000
     Eigenvalues --- 1000.000001000.000001000.000001000.000001000.00000
     Eigenvalues --- 1000.000001000.000001000.000001000.000001000.00000
     Eigenvalues --- 1000.000001000.000001000.000001000.000001000.00000
     Eigenvalues --- 1000.000001000.000001000.000001000.000001000.00000
     Eigenvalues --- 1000.000001000.000001000.000001000.000001000.00000
     Eigenvalues --- 1000.000001000.000001000.000001000.000001000.00000
     Eigenvalues --- 1000.000001000.000001000.00000
 RFO step:  Lambda=-6.65779044D-02 EMin= 8.56240283D-03
 Linear search not attempted -- first point.
 Maximum step size (   0.300) exceeded in Quadratic search.
    -- Step size scaled by   0.675
 Iteration  1 RMS(Cart)=  0.02563736 RMS(Int)=  0.00082434
 Iteration  2 RMS(Cart)=  0.00072913 RMS(Int)=  0.00022296
 Iteration  3 RMS(Cart)=  0.00000068 RMS(Int)=  0.00022296
 Iteration  1 RMS(Cart)=  0.00001569 RMS(Int)=  0.00000494
 Iteration  2 RMS(Cart)=  0.00000249 RMS(Int)=  0.00000526
 Iteration  3 RMS(Cart)=  0.00000040 RMS(Int)=  0.00000537
 Variable       Old X    -DE/DX   Delta X   Delta X   Delta X     New X
                                 (Linear)    (Quad)   (Total)
    R1        2.55794   0.03578   0.00000   0.04008   0.04016   2.59810
    R2        2.04199  -0.00079   0.00000  -0.00126  -0.00126   2.04073
    R3        2.87047  -0.00193   0.00000  -0.00291  -0.00294   2.86753
    R4        4.34637  -0.00444   0.00000   0.00000  -0.00000   4.34637
    R5        2.78030  -0.03771   0.00000  -0.05842  -0.05816   2.72214
    R6        2.04330  -0.00064   0.00000  -0.00102  -0.00102   2.04228
    R7        2.55799   0.03580   0.00000   0.04011   0.04020   2.59819
    R8        2.04330  -0.00064   0.00000  -0.00102  -0.00102   2.04228
    R9        2.04200  -0.00079   0.00000  -0.00126  -0.00126   2.04075
   R10        2.87013  -0.00188   0.00000  -0.00288  -0.00291   2.86722
   R11        4.34637  -0.00448   0.00000   0.00000  -0.00000   4.34637
   R12        2.08326   0.00295   0.00000   0.00498   0.00498   2.08824
   R13        2.06306  -0.00611   0.00000  -0.00816  -0.00809   2.05497
   R14        4.49672  -0.00112   0.00000   0.02873   0.02885   4.52558
   R15        4.50531  -0.00127   0.00000   0.02839   0.02851   4.53382
   R16        2.24069  -0.04570   0.00000  -0.09525  -0.09525   2.14544
   R17        2.27405  -0.04978   0.00000  -0.10816  -0.10816   2.16589
   R18        2.92269  -0.05499   0.00000  -0.12516  -0.12557   2.79713
   R19        2.27140  -0.04943   0.00000  -0.10704  -0.10704   2.16436
   R20        2.24508  -0.04641   0.00000  -0.09728  -0.09728   2.14780
    A1        2.21663  -0.00210   0.00000  -0.00572  -0.00596   2.21067
    A2        1.90574   0.00336   0.00000   0.00766   0.00699   1.91273
    A3        1.58504   0.00304   0.00000   0.02533   0.02524   1.61028
    A4        2.15656  -0.00189   0.00000  -0.00617  -0.00633   2.15024
    A5        1.73118   0.00327   0.00000   0.00598   0.00592   1.73710
    A6        1.45712   0.00006   0.00000   0.01280   0.01296   1.47008
    A7        1.90828  -0.00045   0.00000  -0.00202  -0.00229   1.90598
    A8        2.20543   0.00050   0.00000   0.00165   0.00171   2.20714
    A9        2.16911  -0.00015   0.00000  -0.00010  -0.00005   2.16907
   A10        1.90831  -0.00047   0.00000  -0.00202  -0.00230   1.90601
   A11        2.16914  -0.00014   0.00000  -0.00009  -0.00003   2.16911
   A12        2.20536   0.00051   0.00000   0.00163   0.00169   2.20706
   A13        2.21643  -0.00207   0.00000  -0.00565  -0.00588   2.21055
   A14        1.90578   0.00335   0.00000   0.00763   0.00697   1.91275
   A15        1.58326   0.00305   0.00000   0.02524   0.02515   1.60841
   A16        2.15666  -0.00191   0.00000  -0.00624  -0.00640   2.15026
   A17        1.73182   0.00328   0.00000   0.00601   0.00595   1.73778
   A18        1.45898   0.00002   0.00000   0.01270   0.01286   1.47184
   A19        1.78746  -0.00737   0.00000  -0.02063  -0.02115   1.76632
   A20        1.90989   0.00529   0.00000   0.01822   0.01829   1.92818
   A21        1.98262  -0.00009   0.00000  -0.00888  -0.00898   1.97364
   A22        1.90985   0.00528   0.00000   0.01812   0.01819   1.92804
   A23        1.98351  -0.00009   0.00000  -0.00887  -0.00897   1.97454
   A24        1.88800  -0.00254   0.00000   0.00333   0.00337   1.89137
   A25        1.56128  -0.00047   0.00000   0.00427   0.00433   1.56561
   A26        1.55954  -0.00046   0.00000   0.00427   0.00434   1.56388
   A27        0.97688  -0.00104   0.00000  -0.00892  -0.00894   0.96793
   A28        1.99990  -0.00810   0.00000  -0.04480  -0.04484   1.95507
   A29        2.02141  -0.00918   0.00000  -0.04049  -0.04052   1.98090
   A30        1.75064   0.00469   0.00000   0.00968   0.00960   1.76024
   A31        1.47563  -0.00721   0.00000  -0.02574  -0.02601   1.44963
   A32        1.75779   0.01034   0.00000   0.05095   0.04976   1.80755
   A33        1.97528  -0.00088   0.00000   0.00799   0.00783   1.98311
   A34        1.97035   0.00231   0.00000   0.01398   0.01398   1.98433
   A35        0.97600  -0.00101   0.00000  -0.00886  -0.00889   0.96711
   A36        1.74986   0.00475   0.00000   0.00985   0.00977   1.75964
   A37        2.01944  -0.00914   0.00000  -0.04026  -0.04029   1.97915
   A38        2.00327  -0.00820   0.00000  -0.04533  -0.04537   1.95790
   A39        1.48182  -0.00724   0.00000  -0.02593  -0.02619   1.45563
   A40        1.97411   0.00214   0.00000   0.01316   0.01315   1.98726
   A41        1.97201  -0.00075   0.00000   0.00873   0.00859   1.98060
   A42        1.75678   0.01039   0.00000   0.05114   0.04995   1.80672
   A43        2.97678  -0.00914   0.00000  -0.05372  -0.05378   2.92300
   A44        2.97927  -0.00921   0.00000  -0.05419  -0.05426   2.92501
   A45        3.14785   0.00177   0.00000   0.00246   0.00227   3.15012
   A46        3.14552  -0.00185   0.00000  -0.00302  -0.00282   3.14270
    D1        3.12473  -0.00005   0.00000  -0.00681  -0.00663   3.11810
    D2       -0.04498  -0.00392   0.00000  -0.02514  -0.02504  -0.07002
    D3        0.08004   0.00710   0.00000   0.04154   0.04176   0.12180
    D4       -3.08967   0.00324   0.00000   0.02320   0.02335  -3.06632
    D5       -1.37534   0.00607   0.00000   0.01934   0.01923  -1.35611
    D6        1.73814   0.00220   0.00000   0.00101   0.00082   1.73895
    D7       -0.12108  -0.01019   0.00000  -0.06124  -0.06096  -0.18204
    D8        1.90394  -0.00565   0.00000  -0.04332  -0.04339   1.86055
    D9       -2.26745  -0.00514   0.00000  -0.03188  -0.03194  -2.29939
   D10        3.11337  -0.00331   0.00000  -0.01491  -0.01457   3.09879
   D11       -1.14480   0.00124   0.00000   0.00302   0.00300  -1.14180
   D12        0.96699   0.00174   0.00000   0.01445   0.01445   0.98144
   D13        1.42515  -0.00734   0.00000  -0.03069  -0.03026   1.39489
   D14       -2.83301  -0.00280   0.00000  -0.01276  -0.01269  -2.84570
   D15       -0.72122  -0.00229   0.00000  -0.00133  -0.00123  -0.72246
   D16        2.24790   0.00325   0.00000   0.00484   0.00464   2.25254
   D17       -0.89995   0.00148   0.00000   0.00237   0.00237  -0.89758
   D18       -2.93581   0.00077   0.00000  -0.00096  -0.00121  -2.93702
   D19        1.22128  -0.00054   0.00000  -0.00386  -0.00395   1.21733
   D20       -1.80583   0.00223   0.00000   0.00530   0.00527  -1.80056
   D21        1.32950   0.00046   0.00000   0.00283   0.00300   1.33250
   D22       -0.70636  -0.00025   0.00000  -0.00050  -0.00058  -0.70694
   D23       -2.83245  -0.00156   0.00000  -0.00340  -0.00332  -2.83577
   D24        0.34158   0.00022   0.00000   0.00038   0.00037   0.34195
   D25       -2.80627  -0.00155   0.00000  -0.00208  -0.00190  -2.80817
   D26        1.44106  -0.00226   0.00000  -0.00542  -0.00548   1.43557
   D27       -0.68503  -0.00357   0.00000  -0.00832  -0.00822  -0.69326
   D28        0.00042  -0.00002   0.00000  -0.00012  -0.00012   0.00030
   D29        3.11432  -0.00377   0.00000  -0.01787  -0.01792   3.09639
   D30       -3.11377   0.00373   0.00000   0.01771   0.01776  -3.09601
   D31        0.00013  -0.00001   0.00000  -0.00004  -0.00004   0.00009
   D32       -3.12463   0.00005   0.00000   0.00682   0.00664  -3.11799
   D33       -0.08070  -0.00707   0.00000  -0.04136  -0.04159  -0.12228
   D34        1.37603  -0.00608   0.00000  -0.01931  -0.01919   1.35684
   D35        0.04538   0.00391   0.00000   0.02506   0.02496   0.07034
   D36        3.08931  -0.00322   0.00000  -0.02312  -0.02326   3.06605
   D37       -1.73714  -0.00223   0.00000  -0.00107  -0.00087  -1.73801
   D38        0.12134   0.01017   0.00000   0.06116   0.06088   0.18222
   D39       -1.90370   0.00563   0.00000   0.04316   0.04324  -1.86047
   D40        2.26711   0.00512   0.00000   0.03178   0.03183   2.29894
   D41       -3.11386   0.00332   0.00000   0.01499   0.01466  -3.09920
   D42        1.14429  -0.00123   0.00000  -0.00301  -0.00299   1.14129
   D43       -0.96808  -0.00174   0.00000  -0.01440  -0.01440  -0.98248
   D44       -1.42365   0.00733   0.00000   0.03073   0.03030  -1.39335
   D45        2.83449   0.00278   0.00000   0.01273   0.01265   2.84714
   D46        0.72212   0.00227   0.00000   0.00135   0.00125   0.72337
   D47       -2.24785  -0.00324   0.00000  -0.00487  -0.00467  -2.25252
   D48       -1.22864   0.00048   0.00000   0.00357   0.00367  -1.22497
   D49        2.92541  -0.00067   0.00000   0.00147   0.00172   2.92713
   D50        0.88981  -0.00139   0.00000  -0.00185  -0.00185   0.88796
   D51        1.80638  -0.00224   0.00000  -0.00537  -0.00534   1.80103
   D52        2.82559   0.00148   0.00000   0.00307   0.00300   2.82859
   D53        0.69645   0.00033   0.00000   0.00097   0.00105   0.69750
   D54       -1.33915  -0.00039   0.00000  -0.00235  -0.00252  -1.34166
   D55       -0.34134  -0.00022   0.00000  -0.00041  -0.00040  -0.34174
   D56        0.67787   0.00350   0.00000   0.00803   0.00794   0.68582
   D57       -1.45127   0.00236   0.00000   0.00593   0.00599  -1.44528
   D58        2.79632   0.00163   0.00000   0.00261   0.00242   2.79875
   D59        0.68689   0.00151   0.00000  -0.00283  -0.00297   0.68392
   D60        1.34825  -0.01122   0.00000  -0.03662  -0.03656   1.31169
   D61       -1.34771   0.01123   0.00000   0.03657   0.03651  -1.31120
   D62       -0.68635  -0.00151   0.00000   0.00278   0.00292  -0.68343
   D63        2.81091   0.00637   0.00000   0.01693   0.01683   2.82774
   D64       -2.81091  -0.00636   0.00000  -0.01686  -0.01676  -2.82767
   D65       -0.48148  -0.00153   0.00000  -0.00284  -0.00278  -0.48426
   D66       -2.68625   0.00372   0.00000   0.02313   0.02296  -2.66330
   D67        0.48118   0.00153   0.00000   0.00286   0.00281   0.48399
   D68        2.67822  -0.00368   0.00000  -0.02278  -0.02259   2.65562
   D69        0.00360   0.00002   0.00000   0.00009   0.00009   0.00369
   D70        2.16454  -0.00685   0.00000  -0.03527  -0.03544   2.12910
   D71       -2.13699   0.00721   0.00000   0.04369   0.04390  -2.09308
   D72        2.14226  -0.00715   0.00000  -0.04339  -0.04361   2.09865
   D73       -1.97999  -0.01401   0.00000  -0.07875  -0.07914  -2.05913
   D74        0.00167   0.00004   0.00000   0.00020   0.00020   0.00188
   D75       -2.15830   0.00688   0.00000   0.03539   0.03557  -2.12273
   D76        0.00264   0.00001   0.00000   0.00003   0.00003   0.00267
   D77        1.98430   0.01407   0.00000   0.07899   0.07938   2.06368
         Item               Value     Threshold  Converged?
 Maximum Force            0.055552     0.000450     NO 
 RMS     Force            0.011629     0.000300     NO 
 Maximum Displacement     0.084478     0.001800     NO 
 RMS     Displacement     0.025901     0.001200     NO 
 Predicted change in Energy=-3.432201D-02
 GradGradGradGradGradGradGradGradGradGradGradGradGradGradGradGradGradGrad

                          Input orientation:                          
 ---------------------------------------------------------------------
 Center     Atomic      Atomic             Coordinates (Angstroms)
 Number     Number       Type             X           Y           Z
 ---------------------------------------------------------------------
      1          6           0       -0.760992    1.173993   -0.332165
      2          6           0       -1.127250    0.716008    0.911354
      3          6           0       -1.127081   -0.724469    0.904770
      4          6           0       -0.760339   -1.171037   -0.342799
      5          1           0       -0.689209    2.205381   -0.644078
      6          1           0       -1.340229    1.320696    1.781392
      7          1           0       -1.339987   -1.337170    1.769201
      8          1           0       -0.688357   -2.199569   -0.663987
      9          6           0       -0.660232    0.005742   -1.295304
     10          1           0       -1.513835    0.008566   -1.997077
     11          1           0        0.259881    0.009177   -1.874885
     12          6           0        1.462912    0.739945    0.062617
     13          1           0        1.818025    1.193824    1.040796
     14          1           0        2.164092    1.201138   -0.717945
     15          6           0        1.462554   -0.740229    0.061118
     16          1           0        2.164195   -1.202928   -0.716955
     17          1           0        1.816391   -1.194148    1.041192
 ---------------------------------------------------------------------
                    Distance matrix (angstroms):
                    1          2          3          4          5
     1  C    0.000000
     2  C    1.374858   0.000000
     3  C    2.295254   1.440493   0.000000
     4  C    2.345054   2.295313   1.374900   0.000000
     5  H    1.079909   2.197607   3.342856   3.390579   0.000000
     6  H    2.196398   1.080729   2.235307   3.325236   2.662593
     7  H    3.325194   2.235330   1.080728   2.196391   4.335562
     8  H    3.390620   3.342890   2.197589   1.079917   4.404995
     9  C    1.517431   2.364724   2.364632   1.517266   2.294198
    10  H    2.167239   3.018094   3.017886   2.166992   2.708618
    11  H    2.186084   3.191687   3.191925   2.186559   2.690534
    12  C    2.300000   2.725778   3.092215   2.959571   2.697878
    13  H    2.921771   2.986589   3.517386   3.762295   3.185635
    14  H    2.950539   3.704443   4.144031   3.784210   3.025771
    15  C    2.960249   3.090407   2.723639   2.300000   3.715374
    16  H    3.788738   4.143346   3.700191   2.948543   4.445649
    17  H    3.759934   3.511492   2.983829   2.924979   4.546973
                    6          7          8          9         10
     6  H    0.000000
     7  H    2.657894   0.000000
     8  H    4.335560   2.662472   0.000000
     9  C    3.414316   3.414187   2.294068   0.000000
    10  H    4.003580   4.003259   2.708210   1.105048   0.000000
    11  H    4.201047   4.201380   2.691465   1.087444   1.777920
    12  C    3.339021   3.883694   3.714384   2.625023   3.693003
    13  H    3.246406   4.112122   4.550094   3.607030   4.662060
    14  H    4.305955   4.990739   4.438939   3.120756   4.072536
    15  C    3.881025   3.335885   2.698494   2.627275   3.695369
    16  H    4.989129   4.298637   3.022110   3.126141   4.078521
    17  H    4.103241   3.242403   3.192534   3.610071   4.665619
                   11         12         13         14         15
    11  H    0.000000
    12  C    2.394831   0.000000
    13  H    3.511751   1.135318   0.000000
    14  H    2.526914   1.146137   1.792481   0.000000
    15  C    2.399195   1.480175   2.196974   2.206354   0.000000
    16  H    2.537008   2.207779   2.992314   2.404066   1.145332
    17  H    3.517700   2.196195   2.387973   2.992132   1.136569
                   16         17
    16  H    0.000000
    17  H    1.792240   0.000000
 Stoichiometry    C7H10
 Framework group  C1[X(C7H10)]
 Deg. of freedom    45
 Full point group                 C1      NOp   1
 Largest Abelian subgroup         C1      NOp   1
 Largest concise Abelian subgroup C1      NOp   1
                         Standard orientation:                         
 ---------------------------------------------------------------------
 Center     Atomic      Atomic             Coordinates (Angstroms)
 Number     Number       Type             X           Y           Z
 ---------------------------------------------------------------------
      1          6           0       -0.598552   -1.174037    0.379508
      2          6           0       -1.100876   -0.717304   -0.816026
      3          6           0       -1.100986    0.723178   -0.810587
      4          6           0       -0.598365    1.171001    0.388237
      5          1           0       -0.491874   -2.205123    0.682303
      6          1           0       -1.408674   -1.322840   -1.656597
      7          1           0       -1.408941    1.335035   -1.646510
      8          1           0       -0.491902    2.199842    0.698678
      9          6           0       -0.392343   -0.004929    1.324634
     10          1           0       -1.162786   -0.007696    2.116808
     11          1           0        0.586412   -0.007322    1.798521
     12          6           0        1.567495   -0.738954   -0.259975
     13          1           0        1.812174   -1.193423   -1.271181
     14          1           0        2.351295   -1.199072    0.438294
     15          6           0        1.566270    0.741221   -0.259560
     16          1           0        2.349603    1.204992    0.435488
     17          1           0        1.808833    1.194546   -1.273191
 ---------------------------------------------------------------------
 Rotational constants (GHZ):           3.6705809           2.7737407           2.5275599
 Standard basis: 3-21G (6D, 7F)
 There are    83 symmetry adapted cartesian basis functions of A   symmetry.
 There are    83 symmetry adapted basis functions of A   symmetry.
    83 basis functions,   135 primitive gaussians,    83 cartesian basis functions
    26 alpha electrons       26 beta electrons
       nuclear repulsion energy       291.2967988820 Hartrees.
 NAtoms=   17 NActive=   17 NUniq=   17 SFac= 1.00D+00 NAtFMM=   60 NAOKFM=F Big=F
 Integral buffers will be    131072 words long.
 Raffenetti 2 integral format.
 Two-electron integral symmetry is turned on.
 One-electron integrals computed using PRISM.
 NBasis=    83 RedAO= T EigKep=  4.39D-03  NBF=    83
 NBsUse=    83 1.00D-06 EigRej= -1.00D+00 NBFU=    83
 Initial guess from the checkpoint file:  "C3.chk"
 B after Tr=    -0.000000   -0.000000    0.000000
         Rot=    0.999959   -0.000160   -0.009069   -0.000108 Ang=  -1.04 deg.
 ExpMin= 1.83D-01 ExpMax= 1.72D+02 ExpMxC= 1.72D+02 IAcc=3 IRadAn=         5 AccDes= 0.00D+00
 Harris functional with IExCor=  402 and IRadAn=       5 diagonalized for initial guess.
 HarFok:  IExCor=  402 AccDes= 0.00D+00 IRadAn=         5 IDoV= 1 UseB2=F ITyADJ=14
 ICtDFT=  3500011 ScaDFX=  1.000000  1.000000  1.000000  1.000000
 FoFCou: FMM=F IPFlag=           0 FMFlag=      100000 FMFlg1=           0
         NFxFlg=           0 DoJE=T BraDBF=F KetDBF=T FulRan=T
         wScrn=  0.000000 ICntrl=       500 IOpCl=  0 I1Cent=   200000004 NGrid=           0
         NMat0=    1 NMatS0=      1 NMatT0=    0 NMatD0=    1 NMtDS0=    0 NMtDT0=    0
 Petite list used in FoFCou.
 Keep R1 ints in memory in canonical form, NReq=7891734.
 Requested convergence on RMS density matrix=1.00D-08 within 128 cycles.
 Requested convergence on MAX density matrix=1.00D-06.
 Requested convergence on             energy=1.00D-06.
 No special actions if energy rises.
 Integral accuracy reduced to 1.0D-05 until final iterations.
 Initial convergence to 1.0D-05 achieved.  Increase integral accuracy.
 SCF Done:  E(RB3LYP) =  -271.126218041     A.U. after   13 cycles
            NFock= 13  Conv=0.61D-08     -V/T= 2.0102
 Calling FoFJK, ICntrl=      2127 FMM=F ISym2X=0 I1Cent= 0 IOpClX= 0 NMat=1 NMatS=1 NMatT=0.
 ***** Axes restored to original set *****
 -------------------------------------------------------------------
 Center     Atomic                   Forces (Hartrees/Bohr)
 Number     Number              X              Y              Z
 -------------------------------------------------------------------
      1        6           0.039913496    0.005409373   -0.005520182
      2        6          -0.017321748   -0.024826052    0.011325322
      3        6          -0.017288342    0.024756826    0.011557826
      4        6           0.039873810   -0.005403292   -0.005464261
      5        1          -0.003809572    0.000177153   -0.000448055
      6        1           0.001425024    0.000790517   -0.000544019
      7        1           0.001432889   -0.000787044   -0.000549471
      8        1          -0.003799451   -0.000175305   -0.000441258
      9        6          -0.019108583    0.000090658   -0.011815481
     10        1          -0.002406059   -0.000024740    0.002618624
     11        1          -0.004845317   -0.000051672   -0.003657798
     12        6           0.054166720   -0.024799163    0.011241116
     13        1          -0.027317556   -0.006730955   -0.015657596
     14        1          -0.033807829   -0.009028278    0.005721440
     15        6           0.054032160    0.024647140    0.012525785
     16        1          -0.033596058    0.009189725    0.005320034
     17        1          -0.027543585    0.006765110   -0.016212024
 -------------------------------------------------------------------
 Cartesian Forces:  Max     0.054166720 RMS     0.018757098

 GradGradGradGradGradGradGradGradGradGradGradGradGradGradGradGradGradGrad
 Berny optimization.
 Using GEDIIS/GDIIS optimizer.
 FormGI is forming the generalized inverse of G from B-inverse, IUseBI=4.
 Internal  Forces:  Max     0.031421993 RMS     0.006892613
 Search for a local minimum.
 Step number   2 out of a maximum of  102
 All quantities printed in internal units (Hartrees-Bohrs-Radians)
 Mixed Optimization -- RFO/linear search
 Update second derivatives using D2CorX and points    1    2
 DE= -3.73D-02 DEPred=-3.43D-02 R= 1.09D+00
 TightC=F SS=  1.41D+00  RLast= 3.70D-01 DXNew= 5.0454D-01 1.1086D+00
 Trust test= 1.09D+00 RLast= 3.70D-01 DXMaxT set to 5.05D-01
 ITU=  1  0
 Use linear search instead of GDIIS.
     Eigenvalues ---    0.00845   0.01917   0.02284   0.02343   0.02424
     Eigenvalues ---    0.02688   0.02728   0.03038   0.03090   0.03346
     Eigenvalues ---    0.04206   0.04325   0.04936   0.05139   0.05435
     Eigenvalues ---    0.05673   0.05819   0.06369   0.06419   0.07017
     Eigenvalues ---    0.07228   0.07720   0.12175   0.13057   0.14094
     Eigenvalues ---    0.15930   0.15961   0.20999   0.22244   0.24237
     Eigenvalues ---    0.24484   0.25369   0.25577   0.25783   0.28843
     Eigenvalues ---    0.32748   0.33489   0.35841   0.35842   0.35924
     Eigenvalues ---    0.35935   0.45147   0.537771000.000001000.00000
     Eigenvalues --- 1000.000001000.000001000.000001000.000001000.00000
     Eigenvalues --- 1000.000001000.000001000.000001000.000001000.00000
     Eigenvalues --- 1000.000001000.000001000.000001000.000001000.00000
     Eigenvalues --- 1000.000001000.000001000.000001000.000001000.00000
     Eigenvalues --- 1000.000001000.000001000.000001000.000001000.00000
     Eigenvalues --- 1000.000001000.000001000.000001000.000001000.00000
     Eigenvalues --- 1000.000001000.000001000.000001000.000001000.00000
     Eigenvalues --- 1000.000001000.000001000.000001000.000001000.00000
     Eigenvalues --- 1000.000001000.000001000.000001000.000001000.00000
     Eigenvalues --- 1000.000001000.000001000.000001000.000001000.00000
     Eigenvalues --- 1000.000001000.000001000.000001000.000001000.00000
     Eigenvalues --- 1000.000001000.000001000.000001000.000001000.00000
     Eigenvalues --- 1000.000001000.000001000.000001000.000001000.00000
     Eigenvalues --- 1000.000001000.000001000.000001000.000001000.00000
     Eigenvalues --- 1000.000001000.000001000.000001000.000001000.00000
     Eigenvalues --- 1000.000001000.000001000.000001000.000001000.00000
     Eigenvalues --- 1000.000001000.000001000.000001000.000001000.00000
     Eigenvalues --- 1000.000001000.000001000.000001000.000001000.00000
     Eigenvalues --- 1000.000001000.000001000.000001000.000001000.00000
     Eigenvalues --- 1000.000001000.000001000.00000
 RFO step:  Lambda=-1.33465686D-02 EMin= 8.45283987D-03
 Quartic linear search produced a step of  1.27874.
 Iteration  1 RMS(Cart)=  0.04144847 RMS(Int)=  0.00552234
 Iteration  2 RMS(Cart)=  0.00381609 RMS(Int)=  0.00345036
 Iteration  3 RMS(Cart)=  0.00002346 RMS(Int)=  0.00345025
 Iteration  4 RMS(Cart)=  0.00000019 RMS(Int)=  0.00345025
 Iteration  1 RMS(Cart)=  0.00006100 RMS(Int)=  0.00001956
 Iteration  2 RMS(Cart)=  0.00000991 RMS(Int)=  0.00002085
 Iteration  3 RMS(Cart)=  0.00000161 RMS(Int)=  0.00002128
 Iteration  4 RMS(Cart)=  0.00000027 RMS(Int)=  0.00002136
 Variable       Old X    -DE/DX   Delta X   Delta X   Delta X     New X
                                 (Linear)    (Quad)   (Total)
    R1        2.59810   0.01567   0.05136  -0.01194   0.03991   2.63801
    R2        2.04073   0.00005  -0.00161   0.00278   0.00117   2.04190
    R3        2.86753  -0.00063  -0.00376   0.00142  -0.00280   2.86473
    R4        4.34637  -0.00627  -0.00000   0.00000   0.00000   4.34637
    R5        2.72214  -0.01926  -0.07437   0.00403  -0.06886   2.65328
    R6        2.04228  -0.00028  -0.00131   0.00040  -0.00090   2.04138
    R7        2.59819   0.01566   0.05140  -0.01198   0.03992   2.63811
    R8        2.04228  -0.00028  -0.00131   0.00041  -0.00090   2.04138
    R9        2.04075   0.00004  -0.00161   0.00277   0.00116   2.04191
   R10        2.86722  -0.00058  -0.00372   0.00153  -0.00267   2.86454
   R11        4.34637  -0.00631  -0.00000   0.00000   0.00000   4.34637
   R12        2.08824   0.00020   0.00636  -0.00883  -0.00247   2.08577
   R13        2.05497  -0.00272  -0.01035   0.00097  -0.00897   2.04600
   R14        4.52558  -0.00009   0.03690   0.03482   0.07231   4.59789
   R15        4.53382  -0.00018   0.03646   0.03447   0.07151   4.60533
   R16        2.14544  -0.02473  -0.12179   0.00395  -0.11785   2.02759
   R17        2.16589  -0.02821  -0.13831  -0.00514  -0.14345   2.02243
   R18        2.79713  -0.03142  -0.16057  -0.00901  -0.17181   2.62532
   R19        2.16436  -0.02791  -0.13687  -0.00431  -0.14119   2.02318
   R20        2.14780  -0.02526  -0.12439   0.00301  -0.12138   2.02643
    A1        2.21067  -0.00081  -0.00762   0.00354  -0.00598   2.20470
    A2        1.91273   0.00035   0.00894  -0.02939  -0.02399   1.88874
    A3        1.61028   0.00186   0.03228   0.01608   0.04869   1.65897
    A4        2.15024  -0.00034  -0.00809   0.01954   0.01005   2.16029
    A5        1.73710   0.00263   0.00757   0.01531   0.02254   1.75964
    A6        1.47008   0.00074   0.01657   0.00777   0.02476   1.49483
    A7        1.90598   0.00040  -0.00293   0.01106   0.00656   1.91255
    A8        2.20714  -0.00141   0.00218  -0.02276  -0.02017   2.18697
    A9        2.16907   0.00088  -0.00006   0.01115   0.01140   2.18047
   A10        1.90601   0.00039  -0.00293   0.01104   0.00655   1.91256
   A11        2.16911   0.00089  -0.00004   0.01115   0.01142   2.18053
   A12        2.20706  -0.00140   0.00217  -0.02274  -0.02017   2.18689
   A13        2.21055  -0.00079  -0.00752   0.00359  -0.00583   2.20472
   A14        1.91275   0.00034   0.00891  -0.02940  -0.02402   1.88872
   A15        1.60841   0.00186   0.03216   0.01611   0.04861   1.65703
   A16        2.15026  -0.00036  -0.00818   0.01948   0.00993   2.16019
   A17        1.73778   0.00264   0.00761   0.01535   0.02261   1.76038
   A18        1.47184   0.00071   0.01644   0.00766   0.02451   1.49635
   A19        1.76632  -0.00334  -0.02704   0.02643  -0.00315   1.76316
   A20        1.92818   0.00301   0.02339  -0.00964   0.01409   1.94227
   A21        1.97364  -0.00079  -0.01148  -0.01053  -0.02191   1.95173
   A22        1.92804   0.00301   0.02326  -0.00957   0.01403   1.94207
   A23        1.97454  -0.00079  -0.01147  -0.01064  -0.02201   1.95253
   A24        1.89137  -0.00093   0.00431   0.01322   0.01776   1.90914
   A25        1.56561  -0.00128   0.00554  -0.00639  -0.00114   1.56447
   A26        1.56388  -0.00128   0.00555  -0.00635  -0.00108   1.56280
   A27        0.96793  -0.00024  -0.01144  -0.00744  -0.01890   0.94903
   A28        1.95507  -0.00813  -0.05734  -0.09102  -0.14791   1.80715
   A29        1.98090  -0.00910  -0.05181  -0.09540  -0.14635   1.83455
   A30        1.76024   0.00311   0.01227   0.00689   0.01880   1.77904
   A31        1.44963  -0.00634  -0.03326  -0.03572  -0.07088   1.37875
   A32        1.80755   0.00829   0.06363   0.05409   0.09325   1.90080
   A33        1.98311   0.00136   0.01001   0.05662   0.06277   2.04587
   A34        1.98433   0.00338   0.01787   0.06092   0.07521   2.05954
   A35        0.96711  -0.00021  -0.01137  -0.00741  -0.01880   0.94831
   A36        1.75964   0.00316   0.01250   0.00702   0.01918   1.77881
   A37        1.97915  -0.00907  -0.05152  -0.09524  -0.14592   1.83323
   A38        1.95790  -0.00821  -0.05801  -0.09142  -0.14899   1.80892
   A39        1.45563  -0.00636  -0.03349  -0.03591  -0.07142   1.38422
   A40        1.98726   0.00324   0.01681   0.06012   0.07331   2.06057
   A41        1.98060   0.00146   0.01098   0.05724   0.06445   2.04505
   A42        1.80672   0.00834   0.06387   0.05441   0.09374   1.90046
   A43        2.92300  -0.00837  -0.06878  -0.09846  -0.16682   2.75618
   A44        2.92501  -0.00843  -0.06938  -0.09882  -0.16779   2.75723
   A45        3.15012   0.00161   0.00290   0.02167   0.02066   3.17078
   A46        3.14270  -0.00168  -0.00361  -0.02247  -0.02212   3.12058
    D1        3.11810  -0.00053  -0.00848  -0.01813  -0.02570   3.09240
    D2       -0.07002  -0.00332  -0.03202  -0.03060  -0.06183  -0.13185
    D3        0.12180   0.00551   0.05341   0.02826   0.08139   0.20319
    D4       -3.06632   0.00273   0.02986   0.01579   0.04527  -3.02106
    D5       -1.35611   0.00406   0.02459   0.01452   0.03964  -1.31647
    D6        1.73895   0.00128   0.00104   0.00204   0.00352   1.74247
    D7       -0.18204  -0.00786  -0.07796  -0.04470  -0.12173  -0.30377
    D8        1.86055  -0.00491  -0.05549  -0.04588  -0.10134   1.75921
    D9       -2.29939  -0.00447  -0.04084  -0.04321  -0.08365  -2.38304
   D10        3.09879  -0.00202  -0.01864   0.00115  -0.01649   3.08230
   D11       -1.14180   0.00093   0.00384  -0.00003   0.00390  -1.13790
   D12        0.98144   0.00137   0.01848   0.00265   0.02159   1.00303
   D13        1.39489  -0.00565  -0.03869  -0.02189  -0.05990   1.33500
   D14       -2.84570  -0.00270  -0.01622  -0.02307  -0.03951  -2.88521
   D15       -0.72246  -0.00226  -0.00158  -0.02039  -0.02182  -0.74428
   D16        2.25254   0.00081   0.00594  -0.02190  -0.01718   2.23536
   D17       -0.89758  -0.00081   0.00303  -0.04357  -0.03783  -0.93542
   D18       -2.93702   0.00032  -0.00155   0.01433   0.00803  -2.92899
   D19        1.21733  -0.00118  -0.00506  -0.01559  -0.02126   1.19607
   D20       -1.80056   0.00090   0.00674  -0.01159  -0.00484  -1.80540
   D21        1.33250  -0.00071   0.00384  -0.03326  -0.02550   1.30700
   D22       -0.70694   0.00041  -0.00075   0.02464   0.02037  -0.68657
   D23       -2.83577  -0.00109  -0.00425  -0.00528  -0.00892  -2.84469
   D24        0.34195   0.00063   0.00048   0.00908   0.00951   0.35147
   D25       -2.80817  -0.00099  -0.00243  -0.01258  -0.01115  -2.81931
   D26        1.43557   0.00014  -0.00701   0.04532   0.03472   1.47029
   D27       -0.69326  -0.00136  -0.01052   0.01540   0.00543  -0.68782
   D28        0.00030  -0.00001  -0.00016   0.00002  -0.00014   0.00016
   D29        3.09639  -0.00279  -0.02292  -0.01323  -0.03701   3.05938
   D30       -3.09601   0.00277   0.02271   0.01326   0.03685  -3.05916
   D31        0.00009  -0.00000  -0.00005   0.00002  -0.00002   0.00007
   D32       -3.11799   0.00054   0.00849   0.01809   0.02571  -3.09228
   D33       -0.12228  -0.00549  -0.05318  -0.02827  -0.08117  -0.20346
   D34        1.35684  -0.00407  -0.02454  -0.01459  -0.03967   1.31717
   D35        0.07034   0.00331   0.03192   0.03056   0.06171   0.13205
   D36        3.06605  -0.00272  -0.02975  -0.01581  -0.04517   3.02088
   D37       -1.73801  -0.00130  -0.00111  -0.00213  -0.00367  -1.74168
   D38        0.18222   0.00785   0.07786   0.04470   0.12164   0.30386
   D39       -1.86047   0.00490   0.05529   0.04594   0.10120  -1.75927
   D40        2.29894   0.00446   0.04070   0.04331   0.08361   2.38256
   D41       -3.09920   0.00203   0.01874  -0.00113   0.01664  -3.08256
   D42        1.14129  -0.00093  -0.00382   0.00010  -0.00380   1.13749
   D43       -0.98248  -0.00137  -0.01841  -0.00253  -0.02139  -1.00387
   D44       -1.39335   0.00565   0.03875   0.02194   0.05999  -1.33336
   D45        2.84714   0.00269   0.01618   0.02318   0.03955   2.88669
   D46        0.72337   0.00225   0.00159   0.02055   0.02197   0.74534
   D47       -2.25252  -0.00080  -0.00598   0.02181   0.01707  -2.23545
   D48       -1.22497   0.00114   0.00469   0.01560   0.02093  -1.20404
   D49        2.92713  -0.00023   0.00220  -0.01349  -0.00657   2.92055
   D50        0.88796   0.00088  -0.00237   0.04428   0.03919   0.92715
   D51        1.80103  -0.00091  -0.00683   0.01148   0.00467   1.80570
   D52        2.82859   0.00103   0.00384   0.00527   0.00852   2.83711
   D53        0.69750  -0.00034   0.00134  -0.02382  -0.01898   0.67852
   D54       -1.34166   0.00077  -0.00322   0.03396   0.02678  -1.31488
   D55       -0.34174  -0.00062  -0.00051  -0.00917  -0.00963  -0.35137
   D56        0.68582   0.00132   0.01016  -0.01539  -0.00577   0.68005
   D57       -1.44528  -0.00006   0.00766  -0.04448  -0.03327  -1.47855
   D58        2.79875   0.00106   0.00310   0.01330   0.01249   2.81124
   D59        0.68392   0.00099  -0.00380   0.01326   0.00869   0.69261
   D60        1.31169  -0.00628  -0.04675   0.00622  -0.04052   1.27118
   D61       -1.31120   0.00628   0.04668  -0.00638   0.04031  -1.27089
   D62       -0.68343  -0.00099   0.00373  -0.01341  -0.00890  -0.69233
   D63        2.82774   0.00364   0.02152   0.00343   0.02457   2.85230
   D64       -2.82767  -0.00363  -0.02143  -0.00360  -0.02464  -2.85231
   D65       -0.48426  -0.00155  -0.00356  -0.01387  -0.01714  -0.50140
   D66       -2.66330   0.00488   0.02935   0.07885   0.10625  -2.55705
   D67        0.48399   0.00155   0.00359   0.01401   0.01730   0.50129
   D68        2.65562  -0.00483  -0.02889  -0.07816  -0.10504   2.55058
   D69        0.00369   0.00001   0.00011   0.00001   0.00011   0.00381
   D70        2.12910  -0.00725  -0.04533  -0.07998  -0.12876   2.00033
   D71       -2.09308   0.00714   0.05614   0.07727   0.13702  -1.95606
   D72        2.09865  -0.00710  -0.05576  -0.07721  -0.13660   1.96205
   D73       -2.05913  -0.01436  -0.10120  -0.15720  -0.26548  -2.32461
   D74        0.00188   0.00003   0.00026   0.00005   0.00031   0.00218
   D75       -2.12273   0.00727   0.04548   0.07979   0.12872  -1.99401
   D76        0.00267   0.00001   0.00004  -0.00020  -0.00016   0.00251
   D77        2.06368   0.01440   0.10151   0.15705   0.26563   2.32930
         Item               Value     Threshold  Converged?
 Maximum Force            0.032219     0.000450     NO 
 RMS     Force            0.006893     0.000300     NO 
 Maximum Displacement     0.187506     0.001800     NO 
 RMS     Displacement     0.043960     0.001200     NO 
 Predicted change in Energy=-3.750901D-02
 GradGradGradGradGradGradGradGradGradGradGradGradGradGradGradGradGradGrad

                          Input orientation:                          
 ---------------------------------------------------------------------
 Center     Atomic      Atomic             Coordinates (Angstroms)
 Number     Number       Type             X           Y           Z
 ---------------------------------------------------------------------
      1          6           0       -0.685519    1.171219   -0.322149
      2          6           0       -1.130878    0.697877    0.913308
      3          6           0       -1.130722   -0.706164    0.907123
      4          6           0       -0.685047   -1.168537   -0.332423
      5          1           0       -0.620408    2.206322   -0.625236
      6          1           0       -1.361368    1.312626    1.771153
      7          1           0       -1.361123   -1.328551    1.759469
      8          1           0       -0.619743   -2.200911   -0.644658
      9          6           0       -0.647523    0.005515   -1.290546
     10          1           0       -1.528539    0.008102   -1.955416
     11          1           0        0.254551    0.008832   -1.889281
     12          6           0        1.530922    0.694543    0.065366
     13          1           0        1.733941    1.184518    0.998074
     14          1           0        2.064868    1.197427   -0.713987
     15          6           0        1.530380   -0.694714    0.064286
     16          1           0        2.065795   -1.197961   -0.714366
     17          1           0        1.730949   -1.185226    0.996530
 ---------------------------------------------------------------------
                    Distance matrix (angstroms):
                    1          2          3          4          5
     1  C    0.000000
     2  C    1.395977   0.000000
     3  C    2.287768   1.404054   0.000000
     4  C    2.339778   2.287819   1.396027   0.000000
     5  H    1.080527   2.214295   3.330333   3.388154   0.000000
     6  H    2.204242   1.080250   2.207998   3.322441   2.662780
     7  H    3.322413   2.208034   1.080252   2.204245   4.327910
     8  H    3.388155   3.330389   2.214361   1.080533   4.407275
     9  C    1.515949   2.360079   2.360025   1.515851   2.299331
    10  H    2.175105   2.977163   2.977006   2.174871   2.725114
    11  H    2.165820   3.201360   3.201574   2.166298   2.681851
    12  C    2.300000   2.793599   3.123281   2.922297   2.718571
    13  H    2.756257   2.907093   3.433546   3.627477   3.036804
    14  H    2.778283   3.620833   4.057518   3.647658   2.869922
    15  C    2.922541   3.121288   2.791409   2.300000   3.676593
    16  H    3.651928   4.057369   3.617846   2.777386   4.337369
    17  H    3.623681   3.426814   2.902870   2.757432   4.434140
                    6          7          8          9         10
     6  H    0.000000
     7  H    2.641203   0.000000
     8  H    4.327943   2.662796   0.000000
     9  C    3.404720   3.404636   2.299186   0.000000
    10  H    3.951841   3.951587   2.724653   1.103742   0.000000
    11  H    4.208307   4.208607   2.682618   1.082697   1.784316
    12  C    3.414246   3.914948   3.676023   2.656856   3.730290
    13  H    3.192961   4.058899   4.438415   3.507022   4.555308
    14  H    4.234181   4.923004   4.331356   3.018302   3.983492
    15  C    3.912162   3.411185   2.719238   2.658788   3.732309
    16  H    4.922022   4.228555   2.867557   3.023646   3.989239
    17  H    4.049905   3.188029   3.041524   3.507950   4.556564
                   11         12         13         14         15
    11  H    0.000000
    12  C    2.433099   0.000000
    13  H    3.450746   1.072956   0.000000
    14  H    2.464005   1.070226   1.743799   0.000000
    15  C    2.437035   1.389258   2.108296   2.114613   0.000000
    16  H    2.473333   2.115572   2.952759   2.395389   1.070619
    17  H    3.454480   2.107275   2.369747   2.952018   1.072338
                   16         17
    16  H    0.000000
    17  H    1.743402   0.000000
 Stoichiometry    C7H10
 Framework group  C1[X(C7H10)]
 Deg. of freedom    45
 Full point group                 C1      NOp   1
 Largest Abelian subgroup         C1      NOp   1
 Largest concise Abelian subgroup C1      NOp   1
                         Standard orientation:                         
 ---------------------------------------------------------------------
 Center     Atomic      Atomic             Coordinates (Angstroms)
 Number     Number       Type             X           Y           Z
 ---------------------------------------------------------------------
      1          6           0       -0.544305   -1.171313    0.379082
      2          6           0       -1.148190   -0.699770   -0.787847
      3          6           0       -1.148641    0.704277   -0.783167
      4          6           0       -0.544850    1.168453    0.386819
      5          1           0       -0.438996   -2.206012    0.672079
      6          1           0       -1.488481   -1.315698   -1.607464
      7          1           0       -1.489371    1.325490   -1.598607
      8          1           0       -0.440237    2.201239    0.686751
      9          6           0       -0.380918   -0.004470    1.332961
     10          1           0       -1.167212   -0.007061    2.107545
     11          1           0        0.591837   -0.006321    1.808331
     12          6           0        1.601765   -0.693161   -0.296014
     13          1           0        1.681309   -1.184026   -1.246782
     14          1           0        2.233737   -1.194691    0.407166
     15          6           0        1.599968    0.696096   -0.296288
     16          1           0        2.232290    1.200696    0.404977
[...]
 ! D28   D(1,2,3,4)              0.0008         -DE/DX =    0.0                 !
 ! D29   D(1,2,3,7)            173.025          -DE/DX =    0.0                 !
 ! D30   D(6,2,3,4)           -173.0242         -DE/DX =    0.0                 !
 ! D31   D(6,2,3,7)              0.0            -DE/DX =    0.0                 !
 ! D32   D(2,3,4,8)           -173.7083         -DE/DX =    0.0                 !
 ! D33   D(2,3,4,9)            -16.3407         -DE/DX =    0.0001              !
 ! D34   D(2,3,4,15)            74.0825         -DE/DX =    0.0                 !
 ! D35   D(7,3,4,8)             13.3067         -DE/DX =    0.0                 !
 ! D36   D(7,3,4,9)            170.6743         -DE/DX =    0.0                 !
 ! D37   D(7,3,4,15)           -98.9025         -DE/DX =    0.0                 !
 ! D38   D(3,4,9,1)             24.4792         -DE/DX =   -0.0001              !
 ! D39   D(3,4,9,10)           -87.8568         -DE/DX =    0.0                 !
 ! D40   D(3,4,9,11)           149.9299         -DE/DX =    0.0                 !
 ! D41   D(8,4,9,1)           -177.5317         -DE/DX =    0.0                 !
 ! D42   D(8,4,9,10)            70.1323         -DE/DX =    0.0                 !
 ! D43   D(8,4,9,11)           -52.0811         -DE/DX =    0.0                 !
 ! D44   D(15,4,9,1)           -73.4145         -DE/DX =   -0.0002              !
 ! D45   D(15,4,9,10)          174.2496         -DE/DX =   -0.0001              !
 ! D46   D(15,4,9,11)           52.0362         -DE/DX =   -0.0001              !
 ! D47   D(3,4,15,11)         -128.508          -DE/DX =    0.0                 !
 ! D48   D(3,4,15,12)          -68.2185         -DE/DX =    0.0                 !
 ! D49   D(3,4,15,16)          170.0922         -DE/DX =    0.0                 !
 ! D50   D(3,4,15,17)           54.458          -DE/DX =    0.0                 !
 ! D51   D(8,4,15,11)          102.2423         -DE/DX =    0.0                 !
 ! D52   D(8,4,15,12)          162.5317         -DE/DX =    0.0                 !
 ! D53   D(8,4,15,16)           40.8425         -DE/DX =    0.0                 !
 ! D54   D(8,4,15,17)          -74.7917         -DE/DX =    0.0                 !
 ! D55   D(9,4,15,11)          -21.3593         -DE/DX =    0.0                 !
 ! D56   D(9,4,15,12)           38.9302         -DE/DX =    0.0                 !
 ! D57   D(9,4,15,16)          -82.7591         -DE/DX =    0.0                 !
 ! D58   D(9,4,15,17)          161.6067         -DE/DX =    0.0                 !
 ! D59   D(1,9,11,12)           43.4265         -DE/DX =    0.0001              !
 ! D60   D(1,9,11,15)           73.6109         -DE/DX =    0.0                 !
 ! D61   D(4,9,11,12)          -73.6115         -DE/DX =    0.0                 !
 ! D62   D(4,9,11,15)          -43.4271         -DE/DX =   -0.0001              !
 ! D63   D(10,9,11,12)         164.9076         -DE/DX =    0.0                 !
 ! D64   D(10,9,11,15)        -164.908          -DE/DX =    0.0                 !
 ! D65   D(9,11,12,1)          -31.0875         -DE/DX =    0.0001              !
 ! D66   D(9,11,12,14)        -139.5341         -DE/DX =    0.0                 !
 ! D67   D(9,11,15,4)           31.088          -DE/DX =   -0.0001              !
 ! D68   D(9,11,15,16)         139.5366         -DE/DX =    0.0                 !
 ! D69   D(1,12,15,4)           -0.001          -DE/DX =    0.0                 !
 ! D70   D(1,12,15,16)          97.4932         -DE/DX =    0.0                 !
 ! D71   D(1,12,15,17)        -101.5815         -DE/DX =    0.0                 !
 ! D72   D(13,12,15,4)         101.5801         -DE/DX =    0.0                 !
 ! D73   D(13,12,15,16)       -160.9257         -DE/DX =    0.0                 !
 ! D74   D(13,12,15,17)         -0.0003         -DE/DX =    0.0                 !
 ! D75   D(14,12,15,4)         -97.4951         -DE/DX =    0.0                 !
 ! D76   D(14,12,15,16)         -0.0009         -DE/DX =    0.0                 !
 ! D77   D(14,12,15,17)        160.9244         -DE/DX =    0.0                 !
 --------------------------------------------------------------------------------
 GradGradGradGradGradGradGradGradGradGradGradGradGradGradGradGradGradGrad

                          Input orientation:                          
 ---------------------------------------------------------------------
 Center     Atomic      Atomic             Coordinates (Angstroms)
 Number     Number       Type             X           Y           Z
 ---------------------------------------------------------------------
      1          6           0       -0.581998    1.169870   -0.309966
      2          6           0       -1.119359    0.707788    0.885444
      3          6           0       -1.119273   -0.713923    0.880502
      4          6           0       -0.581840   -1.167617   -0.318082
      5          1           0       -0.546383    2.205101   -0.621915
      6          1           0       -1.381526    1.324354    1.734272
      7          1           0       -1.381365   -1.336406    1.725023
      8          1           0       -0.546073   -2.200652   -0.637211
      9          6           0       -0.592152    0.004515   -1.290176
     10          1           0       -1.571227    0.006225   -1.801175
     11          1           0        0.198160    0.007162   -2.038894
     12          6           0        1.625609    0.686190    0.117262
     13          1           0        1.635067    1.239560    1.047509
     14          1           0        1.920900    1.246228   -0.763986
     15          6           0        1.625703   -0.686601    0.112472
     16          1           0        1.921052   -1.240412   -0.772659
     17          1           0        1.635241   -1.246463    1.038825
 ---------------------------------------------------------------------
                    Distance matrix (angstroms):
                    1          2          3          4          5
     1  C    0.000000
     2  C    1.389705   0.000000
     3  C    2.292281   1.421720   0.000000
     4  C    2.337501   2.292280   1.389704   0.000000
     5  H    1.081797   2.200541   3.332591   3.386562   0.000000
     6  H    2.200458   1.081385   2.225370   3.325895   2.650433
     7  H    3.325896   2.225369   1.081384   2.200456   4.329848
     8  H    3.386562   3.332591   2.200540   1.081797   4.405780
     9  C    1.522816   2.346458   2.346455   1.522815   2.300271
    10  H    2.134560   2.813236   2.813231   2.134562   2.697409
    11  H    2.224799   3.283061   3.283058   2.224792   2.719028
    12  C    2.300000   2.850512   3.174465   2.915297   2.751549
    13  H    2.600571   2.809965   3.380884   3.545986   2.911695
    14  H    2.544889   3.500530   3.973560   3.505593   2.650869
    15  C    2.915283   3.174456   2.850528   2.300000   3.690423
    16  H    3.505539   3.973524   3.500530   2.544879   4.240580
    17  H    3.545990   3.380894   2.809984   2.600551   4.408042
                    6          7          8          9         10
     6  H    0.000000
     7  H    2.660776   0.000000
     8  H    4.329848   2.650431   0.000000
     9  C    3.392988   3.392985   2.300271   0.000000
    10  H    3.777940   3.777933   2.697418   1.104406   0.000000
    11  H    4.297346   4.297342   2.719015   1.088659   1.785285
    12  C    3.473447   3.964553   3.690433   2.713674   3.789791
    13  H    3.094942   4.024113   4.408028   3.456965   4.462783
    14  H    4.141668   4.875460   4.240638   2.852044   3.848158
    15  C    3.964542   3.473474   2.751543   2.713658   3.789777
    16  H    4.875423   4.141689   2.650870   2.851992   3.848112
    17  H    4.024131   3.094974   2.911650   3.456945   4.462764
                   11         12         13         14         15
    11  H    0.000000
    12  C    2.673519   0.000000
    13  H    3.620690   1.082436   0.000000
    14  H    2.475583   1.085098   1.833919   0.000000
    15  C    2.673493   1.372799   2.141139   2.142696   0.000000
    16  H    2.475510   2.142672   3.089509   2.486655   1.085079
    17  H    3.620654   2.141149   2.486038   3.089536   1.082436
                   16         17
    16  H    0.000000
    17  H    1.833903   0.000000
 Stoichiometry    C7H10
 Framework group  C1[X(C7H10)]
 Deg. of freedom    45
 Full point group                 C1      NOp   1
 Largest Abelian subgroup         C1      NOp   1
 Largest concise Abelian subgroup C1      NOp   1
                         Standard orientation:                         
 ---------------------------------------------------------------------
 Center     Atomic      Atomic             Coordinates (Angstroms)
 Number     Number       Type             X           Y           Z
 ---------------------------------------------------------------------
      1          6           0       -0.493475   -1.168747    0.362101
      2          6           0       -1.166924   -0.710886   -0.764004
      3          6           0       -1.166950    0.710833   -0.764027
      4          6           0       -0.493503    1.168754    0.362053
      5          1           0       -0.421189   -2.202879    0.671342
      6          1           0       -1.526081   -1.330435   -1.574287
      7          1           0       -1.526130    1.330341   -1.574330
      8          1           0       -0.421230    2.202901    0.671247
      9          6           0       -0.389707    0.000026    1.332756
     10          1           0       -1.302441    0.000025    1.954550
     11          1           0        0.482599    0.000056    1.984109
     12          6           0        1.648937   -0.686393   -0.321568
     13          1           0        1.550012   -1.243009   -1.244639
     14          1           0        2.045346   -1.243325    0.521120
     15          6           0        1.648924    0.686406   -0.321574
     16          1           0        2.045305    1.243330    0.521109
     17          1           0        1.549995    1.243029   -1.244640
 ---------------------------------------------------------------------
 Rotational constants (GHZ):           3.7680024           2.7443831           2.5065636

 **********************************************************************

            Population analysis using the SCF Density.

 **********************************************************************

 Orbital symmetries:
       Occupied  (A) (A) (A) (A) (A) (A) (A) (A) (A) (A) (A) (A)
                 (A) (A) (A) (A) (A) (A) (A) (A) (A) (A) (A) (A)
                 (A) (A)
       Virtual   (A) (A) (A) (A) (A) (A) (A) (A) (A) (A) (A) (A)
                 (A) (A) (A) (A) (A) (A) (A) (A) (A) (A) (A) (A)
                 (A) (A) (A) (A) (A) (A) (A) (A) (A) (A) (A) (A)
                 (A) (A) (A) (A) (A) (A) (A) (A) (A) (A) (A) (A)
                 (A) (A) (A) (A) (A) (A) (A) (A) (A)
 The electronic state is 1-A.
 Alpha  occ. eigenvalues --  -10.12744 -10.12684 -10.12199 -10.11216 -10.11093
 Alpha  occ. eigenvalues --  -10.10432 -10.10323  -0.85803  -0.73823  -0.69905
 Alpha  occ. eigenvalues --   -0.69825  -0.56574  -0.55182  -0.52067  -0.51251
 Alpha  occ. eigenvalues --   -0.45571  -0.43133  -0.40124  -0.38898  -0.37263
 Alpha  occ. eigenvalues --   -0.36562  -0.35362  -0.33543  -0.30550  -0.21725
 Alpha  occ. eigenvalues --   -0.21643
 Alpha virt. eigenvalues --    0.00018   0.03301   0.12291   0.12371   0.15573
 Alpha virt. eigenvalues --    0.16405   0.17600   0.18476   0.19199   0.19827
 Alpha virt. eigenvalues --    0.20948   0.22372   0.23397   0.26254   0.28487
 Alpha virt. eigenvalues --    0.35551   0.36256   0.41377   0.45357   0.65433
 Alpha virt. eigenvalues --    0.67165   0.71473   0.72901   0.73975   0.74933
 Alpha virt. eigenvalues --    0.75844   0.77872   0.78089   0.78772   0.82643
 Alpha virt. eigenvalues --    0.87380   0.89796   0.90713   0.96288   0.97067
 Alpha virt. eigenvalues --    0.99810   0.99855   1.01334   1.02552   1.04084
 Alpha virt. eigenvalues --    1.06227   1.08574   1.11045   1.12155   1.15762
 Alpha virt. eigenvalues --    1.17538   1.33116   1.35247   1.38233   1.39950
 Alpha virt. eigenvalues --    1.42884   1.64117   1.71309   2.00945   2.07882
 Alpha virt. eigenvalues --    2.12987   2.57898
          Condensed to atoms (all electrons):
               1          2          3          4          5          6
     1  C    5.353133   0.462815  -0.110027  -0.135965   0.390709  -0.037814
     2  C    0.462815   5.192354   0.443029  -0.110028  -0.037065   0.390826
     3  C   -0.110027   0.443029   5.192355   0.462814   0.004422  -0.034852
     4  C   -0.135965  -0.110028   0.462814   5.353134   0.003500   0.004062
     5  H    0.390709  -0.037065   0.004422   0.003500   0.505426  -0.002130
     6  H   -0.037814   0.390826  -0.034852   0.004062  -0.002130   0.504453
     7  H    0.004062  -0.034852   0.390826  -0.037814  -0.000051  -0.001554
     8  H    0.003500   0.004423  -0.037065   0.390709  -0.000043  -0.000051
     9  C    0.323163  -0.124681  -0.124682   0.323163  -0.031893   0.004123
    10  H   -0.039591   0.001212   0.001212  -0.039591  -0.000027  -0.000131
    11  H   -0.032864   0.004082   0.004082  -0.032865  -0.001023  -0.000052
    12  C    0.038839  -0.016859  -0.015734  -0.017578  -0.006967   0.000156
    13  H   -0.005747  -0.002025   0.000382   0.000719  -0.000001   0.000216
    14  H   -0.005442   0.000160   0.000176   0.000893   0.000113  -0.000006
    15  C   -0.017579  -0.015735  -0.016859   0.038840   0.000187  -0.000148
    16  H    0.000893   0.000176   0.000160  -0.005442  -0.000010   0.000000
    17  H    0.000719   0.000382  -0.002025  -0.005747  -0.000007   0.000000
               7          8          9         10         11         12
     1  C    0.004062   0.003500   0.323163  -0.039591  -0.032864   0.038839
     2  C   -0.034852   0.004423  -0.124681   0.001212   0.004082  -0.016859
     3  C    0.390826  -0.037065  -0.124682   0.001212   0.004082  -0.015734
     4  C   -0.037814   0.390709   0.323163  -0.039591  -0.032865  -0.017578
     5  H   -0.000051  -0.000043  -0.031893  -0.000027  -0.001023  -0.006967
     6  H   -0.001554  -0.000051   0.004123  -0.000131  -0.000052   0.000156
     7  H    0.504454  -0.002130   0.004123  -0.000131  -0.000052  -0.000148
     8  H   -0.002130   0.505426  -0.031892  -0.000027  -0.001023   0.000187
     9  C    0.004123  -0.031892   5.408305   0.340996   0.369661  -0.029618
    10  H   -0.000131  -0.000027   0.340996   0.531759  -0.024363   0.002266
    11  H   -0.000052  -0.001023   0.369661  -0.024363   0.520069  -0.002198
    12  C   -0.000148   0.000187  -0.029618   0.002266  -0.002198   5.256337
    13  H    0.000000  -0.000007   0.000579  -0.000014   0.000068   0.385257
    14  H    0.000000  -0.000010  -0.001094   0.000004   0.001058   0.379633
    15  C    0.000156  -0.006967  -0.029620   0.002266  -0.002198   0.495196
    16  H   -0.000006   0.000113  -0.001094   0.000004   0.001058  -0.048373
    17  H    0.000215  -0.000001   0.000579  -0.000014   0.000068  -0.044593
              13         14         15         16         17
     1  C   -0.005747  -0.005442  -0.017579   0.000893   0.000719
     2  C   -0.002025   0.000160  -0.015735   0.000176   0.000382
     3  C    0.000382   0.000176  -0.016859   0.000160  -0.002025
     4  C    0.000719   0.000893   0.038840  -0.005442  -0.005747
     5  H   -0.000001   0.000113   0.000187  -0.000010  -0.000007
     6  H    0.000216  -0.000006  -0.000148   0.000000   0.000000
     7  H    0.000000   0.000000   0.000156  -0.000006   0.000215
     8  H   -0.000007  -0.000010  -0.006967   0.000113  -0.000001
     9  C    0.000579  -0.001094  -0.029620  -0.001094   0.000579
    10  H   -0.000014   0.000004   0.002266   0.000004  -0.000014
    11  H    0.000068   0.001058  -0.002198   0.001058   0.000068
    12  C    0.385257   0.379633   0.495196  -0.048373  -0.044593
    13  H    0.510673  -0.031989  -0.044595   0.003146  -0.004734
    14  H   -0.031989   0.525949  -0.048371  -0.004928   0.003145
    15  C   -0.044595  -0.048371   5.256340   0.379634   0.385258
    16  H    0.003146  -0.004928   0.379634   0.525947  -0.031990
    17  H   -0.004734   0.003145   0.385258  -0.031990   0.510670
 Mulliken charges:
               1
     1  C   -0.192803
     2  C   -0.158214
     3  C   -0.158214
     4  C   -0.192804
     5  H    0.174860
     6  H    0.172903
     7  H    0.172902
     8  H    0.174860
     9  C   -0.400117
    10  H    0.224171
    11  H    0.196493
    12  C   -0.375801
    13  H    0.188074
    14  H    0.180709
    15  C   -0.375804
    16  H    0.180712
    17  H    0.188074
 Sum of Mulliken charges =  -0.00000
 Mulliken charges with hydrogens summed into heavy atoms:
               1
     1  C   -0.017943
     2  C    0.014689
     3  C    0.014688
     4  C   -0.017945
     9  C    0.020548
    12  C   -0.007019
    15  C   -0.007017
 Electronic spatial extent (au):  <R**2>=            660.4100
 Charge=              0.0000 electrons
 Dipole moment (field-independent basis, Debye):
    X=             -0.1963    Y=              0.0000    Z=              0.4495  Tot=              0.4905
 Quadrupole moment (field-independent basis, Debye-Ang):
   XX=            -47.1640   YY=            -40.5521   ZZ=            -40.7621
   XY=             -0.0000   XZ=              1.8521   YZ=              0.0000
 Traceless Quadrupole moment (field-independent basis, Debye-Ang):
   XX=             -4.3379   YY=              2.2740   ZZ=              2.0640
   XY=             -0.0000   XZ=              1.8521   YZ=              0.0000
 Octapole moment (field-independent basis, Debye-Ang**2):
  XXX=             -1.9063  YYY=              0.0001  ZZZ=             -0.8187  XYY=              0.3331
  XXY=             -0.0001  XXZ=              1.5072  XZZ=             -1.8365  YZZ=             -0.0000
  YYZ=             -0.2541  XYZ=             -0.0000
 Hexadecapole moment (field-independent basis, Debye-Ang**3):
 XXXX=           -448.2856 YYYY=           -251.9515 ZZZZ=           -214.7168 XXXY=             -0.0006
 XXXZ=             11.5537 YYYX=              0.0001 YYYZ=             -0.0002 ZZZX=              4.4707
 ZZZY=              0.0000 XXYY=           -112.1370 XXZZ=            -97.0399 YYZZ=            -75.7390
 XXYZ=             -0.0000 YYXZ=              3.9566 ZZXY=              0.0000
 N-N= 2.930515420401D+02 E-N=-1.213484697497D+03  KE= 2.687802800868D+02
 1\1\GINC-TACHAS\FOpt\RB3LYP\3-21G\C7H10\LEOS\20-Oct-2019\0\\# opt=modr
 edundant b3lyp/3-21g geom=connectivity\\Title Card Required\\0,1\C,-0.
 5819977493,1.1698697594,-0.3099656196\C,-1.1193587933,0.7077883549,0.8
 854442521\C,-1.119272971,-0.7139227366,0.8805023159\C,-0.5818400727,-1
 .1676171078,-0.3180823277\H,-0.5463826758,2.2051012386,-0.621914959\H,
 -1.381526024,1.3243540722,1.7342715202\H,-1.3813647735,-1.3364057815,1
 .7250229202\H,-0.5460729343,-2.2006524341,-0.6372107296\C,-0.592151507
 9,0.004514651,-1.2901756897\H,-1.5712270693,0.0062252428,-1.8011748655
 \H,0.1981600035,0.007161525,-2.0388942871\C,1.6256094695,0.6861899274,
 0.1172623475\H,1.635066618,1.2395602945,1.0475089819\H,1.9209000779,1.
 2462276107,-0.7639858654\C,1.6257026925,-0.6866005953,0.1124723444\H,1
 .9210520156,-1.2404123262,-0.7726592278\H,1.6352408741,-1.2464629151,1
 .038825379\\Version=ES64L-G16RevB.01\State=1-A\HF=-271.1780243\RMSD=3.
 415e-09\RMSF=3.807e-04\Dipole=-0.0973299,0.0005743,-0.1666217\Quadrupo
 le=-3.479578,1.6906279,1.7889501,0.0023877,-0.7877041,-0.0004074\PG=C0
 1 [X(C7H10)]\\@


      SCIENCE SANS CONSCIENCE N'EST QUE RUINE DE L'AME.

                                                  -- RABELAIS
 Job cpu time:       0 days  0 hours  7 minutes 44.1 seconds.
 Elapsed time:       0 days  0 hours  3 minutes 54.0 seconds.
 File lengths (MBytes):  RWF=     10 Int=      0 D2E=      0 Chk=      2 Scr=      1
 Normal termination of Gaussian 16 at Sun Oct 20 19:25:57 2019.
