 Entering Gaussian System, Link 0=g16
 Input=/home/leos/jsmolpage/PDB/Ciclo/C2.4.com
 Output=/home/leos/jsmolpage/PDB/Ciclo/C2.4.log
 Initial command:
 /opt/g16/l1.exe "/tmp/Gau-7105.inp" -scrdir="/tmp/"
 Entering Link 1 = /opt/g16/l1.exe PID=      7108.
  
 Copyright (c) 1988-2017, Gaussian, Inc.  All Rights Reserved.
  
 This is part of the Gaussian(R) 16 program.  It is based on
 the Gaussian(R) 09 system (copyright 2009, Gaussian, Inc.),
 the Gaussian(R) 03 system (copyright 2003, Gaussian, Inc.),
 the Gaussian(R) 98 system (copyright 1998, Gaussian, Inc.),
 the Gaussian(R) 94 system (copyright 1995, Gaussian, Inc.),
 the Gaussian 92(TM) system (copyright 1992, Gaussian, Inc.),
 the Gaussian 90(TM) system (copyright 1990, Gaussian, Inc.),
 the Gaussian 88(TM) system (copyright 1988, Gaussian, Inc.),
 the Gaussian 86(TM) system (copyright 1986, Carnegie Mellon
 University), and the Gaussian 82(TM) system (copyright 1983,
 Carnegie Mellon University). Gaussian is a federally registered
 trademark of Gaussian, Inc.
  
 This software contains proprietary and confidential information,
 including trade secrets, belonging to Gaussian, Inc.
  
 This software is provided under written license and may be
 used, copied, transmitted, or stored only in accord with that
 written license.
  
 The following legend is applicable only to US Government
 contracts under FAR:
  
                    RESTRICTED RIGHTS LEGEND
  
 Use, reproduction and disclosure by the US Government is
 subject to restrictions as set forth in subparagraphs (a)
 and (c) of the Commercial Computer Software - Restricted
 Rights clause in FAR 52.227-19.
  
 Gaussian, Inc.
 340 Quinnipiac St., Bldg. 40, Wallingford CT 06492
  
  
 ---------------------------------------------------------------
 Warning -- This program may not be used in any manner that
 competes with the business of Gaussian, Inc. or will provide
 assistance to any competitor of Gaussian, Inc.  The licensee
 of this program is prohibited from giving any competitor of
 Gaussian, Inc. access to this program.  By using this program,
 the user acknowledges that Gaussian, Inc. is engaged in the
 business of creating and licensing software in the field of
 computational chemistry and represents and warrants to the
 licensee that it is not a competitor of Gaussian, Inc. and that
 it will not use this program in any manner prohibited above.
 ---------------------------------------------------------------
  

 Cite this work as:
 Gaussian 16, Revision B.01,
 M. J. Frisch, G. W. Trucks, H. B. Schlegel, G. E. Scuseria, 
 M. A. Robb, J. R. Cheeseman, G. Scalmani, V. Barone, 
 G. A. Petersson, H. Nakatsuji, X. Li, M. Caricato, A. V. Marenich, 
 J. Bloino, B. G. Janesko, R. Gomperts, B. Mennucci, H. P. Hratchian, 
 J. V. Ortiz, A. F. Izmaylov, J. L. Sonnenberg, D. Williams-Young, 
 F. Ding, F. Lipparini, F. Egidi, J. Goings, B. Peng, A. Petrone, 
 T. Henderson, D. Ranasinghe, V. G. Zakrzewski, J. Gao, N. Rega, 
 G. Zheng, W. Liang, M. Hada, M. Ehara, K. Toyota, R. Fukuda, 
 J. Hasegawa, M. Ishida, T. Nakajima, Y. Honda, O. Kitao, H. Nakai, 
 T. Vreven, K. Throssell, J. A. Montgomery, Jr., J. E. Peralta, 
 F. Ogliaro, M. J. Bearpark, J. J. Heyd, E. N. Brothers, K. N. Kudin, 
 V. N. Staroverov, T. A. Keith, R. Kobayashi, J. Normand, 
 K. Raghavachari, A. P. Rendell, J. C. Burant, S. S. Iyengar, 
 J. Tomasi, M. Cossi, J. M. Millam, M. Klene, C. Adamo, R. Cammi, 
 J. W. Ochterski, R. L. Martin, K. Morokuma, O. Farkas, 
 J. B. Foresman, and D. J. Fox, Gaussian, Inc., Wallingford CT, 2016.
 
 ******************************************
 Gaussian 16:  ES64L-G16RevB.01 20-Dec-2017
                20-Oct-2019 
 ******************************************
 %nprocshared=2
 Will use up to    2 processors via shared memory.
 %mem=6GB
 %chk=C3.chk
 ------------------------------------------------
 # opt=modredundant b3lyp/3-21g geom=connectivity
 ------------------------------------------------
 1/18=120,19=15,26=3,38=1,57=2/1,3;
 2/9=110,12=2,17=6,18=5,40=1/2;
 3/5=5,11=2,25=1,30=1,71=1,74=-5/1,2,3;
 4//1;
 5/5=2,38=5/2;
 6/7=2,8=2,9=2,10=2,28=1/1;
 7//1,2,3,16;
 1/18=20,19=15,26=3/3(2);
 2/9=110/2;
 99//99;
 2/9=110/2;
 3/5=5,11=2,25=1,30=1,71=1,74=-5/1,2,3;
 4/5=5,16=3,69=1/1;
 5/5=2,38=5/2;
 7//1,2,3,16;
 1/18=20,19=15,26=3/3(-5);
 2/9=110/2;
 6/7=2,8=2,9=2,10=2,19=2,28=1/1;
 99/9=1/99;
 -------------------
 Title Card Required
 -------------------
 Symbolic Z-matrix:
 Charge =  0 Multiplicity = 1
 C                    -0.79369   1.18537  -0.33569 
 C                    -1.11924   0.73143   0.89728 
 C                    -1.11909  -0.73982   0.89047 
 C                    -0.79293  -1.18231  -0.34652 
 H                    -0.72426   2.21635  -0.65178 
 H                    -1.32329   1.33641   1.76992 
 H                    -1.32313  -1.35292   1.75743 
 H                    -0.7233   -2.21038  -0.67191 
 C                    -0.66368   0.00577  -1.28383 
 H                    -1.50946   0.00868  -1.99091 
 H                     0.26287   0.00925  -1.8612 
 C                     1.5302    0.75521   0.082 
 H                     1.84769   1.23853   1.0734 
 H                     2.2045    1.24206  -0.73138 
 C                     1.52991  -0.75571   0.0806 
 H                     2.20406  -1.24443  -0.73004 
 H                     1.84698  -1.23871   1.0746 
 
 Add virtual bond connecting atoms C12        and C1         Dist= 4.54D+00.
 Add virtual bond connecting atoms C12        and H11        Dist= 4.61D+00.
 Add virtual bond connecting atoms C15        and C4         Dist= 4.54D+00.
 Add virtual bond connecting atoms C15        and H11        Dist= 4.61D+00.
 The following ModRedundant input section has been read:
 B       4      15 F                                                           
 B       1      12 F                                                           
 

 GradGradGradGradGradGradGradGradGradGradGradGradGradGradGradGradGradGrad
 Berny optimization.
 Initialization pass.
                           ----------------------------
                           !    Initial Parameters    !
                           ! (Angstroms and Degrees)  !
 --------------------------                            --------------------------
 ! Name  Definition              Value          Derivative Info.                !
 --------------------------------------------------------------------------------
 ! R1    R(1,2)                  1.3536         estimate D2E/DX2                !
 ! R2    R(1,5)                  1.0806         estimate D2E/DX2                !
 ! R3    R(1,9)                  1.519          estimate D2E/DX2                !
 ! R4    R(1,12)                 2.4            Frozen                          !
 ! R5    R(2,3)                  1.4713         estimate D2E/DX2                !
 ! R6    R(2,6)                  1.0813         estimate D2E/DX2                !
 ! R7    R(3,4)                  1.3536         estimate D2E/DX2                !
 ! R8    R(3,7)                  1.0813         estimate D2E/DX2                !
 ! R9    R(4,8)                  1.0806         estimate D2E/DX2                !
 ! R10   R(4,9)                  1.5188         estimate D2E/DX2                !
 ! R11   R(4,15)                 2.4            Frozen                          !
 ! R12   R(9,10)                 1.1024         estimate D2E/DX2                !
 ! R13   R(9,11)                 1.0917         estimate D2E/DX2                !
 ! R14   R(11,12)                2.4369         estimate D2E/DX2                !
 ! R15   R(11,15)                2.4415         estimate D2E/DX2                !
 ! R16   R(12,13)                1.1477         estimate D2E/DX2                !
 ! R17   R(12,14)                1.1633         estimate D2E/DX2                !
 ! R18   R(12,15)                1.5109         estimate D2E/DX2                !
 ! R19   R(15,16)                1.1621         estimate D2E/DX2                !
 ! R20   R(15,17)                1.1497         estimate D2E/DX2                !
 ! A1    A(2,1,5)              127.0035         estimate D2E/DX2                !
 ! A2    A(2,1,9)              109.191          estimate D2E/DX2                !
 ! A3    A(2,1,12)              90.816          estimate D2E/DX2                !
 ! A4    A(5,1,9)              123.5619         estimate D2E/DX2                !
 ! A5    A(5,1,12)              99.1894         estimate D2E/DX2                !
 ! A6    A(9,1,12)              83.4866         estimate D2E/DX2                !
 ! A7    A(1,2,3)              109.3362         estimate D2E/DX2                !
 ! A8    A(1,2,6)              126.362          estimate D2E/DX2                !
 ! A9    A(3,2,6)              124.281          estimate D2E/DX2                !
 ! A10   A(2,3,4)              109.3381         estimate D2E/DX2                !
 ! A11   A(2,3,7)              124.2827         estimate D2E/DX2                !
 ! A12   A(4,3,7)              126.358          estimate D2E/DX2                !
 ! A13   A(3,4,8)              126.9922         estimate D2E/DX2                !
 ! A14   A(3,4,9)              109.1931         estimate D2E/DX2                !
 ! A15   A(3,4,15)              90.7143         estimate D2E/DX2                !
 ! A16   A(8,4,9)              123.5673         estimate D2E/DX2                !
 ! A17   A(8,4,15)              99.2262         estimate D2E/DX2                !
 ! A18   A(9,4,15)              83.5936         estimate D2E/DX2                !
 ! A19   A(1,9,4)              102.4141         estimate D2E/DX2                !
 ! A20   A(1,9,10)             109.4285         estimate D2E/DX2                !
 ! A21   A(1,9,11)             113.5958         estimate D2E/DX2                !
 ! A22   A(4,9,10)             109.4265         estimate D2E/DX2                !
 ! A23   A(4,9,11)             113.6469         estimate D2E/DX2                !
 ! A24   A(10,9,11)            108.1745         estimate D2E/DX2                !
 ! A25   A(9,11,12)             91.1819         estimate D2E/DX2                !
 ! A26   A(9,11,15)             91.0782         estimate D2E/DX2                !
 ! A27   A(1,12,11)             54.022          estimate D2E/DX2                !
 ! A28   A(1,12,13)            110.0417         estimate D2E/DX2                !
 ! A29   A(1,12,14)            111.3804         estimate D2E/DX2                !
 ! A30   A(1,12,15)            100.3047         estimate D2E/DX2                !
 ! A31   A(11,12,13)           164.0606         estimate D2E/DX2                !
 ! A32   A(11,12,14)            82.6465         estimate D2E/DX2                !
 ! A33   A(13,12,14)           105.509          estimate D2E/DX2                !
 ! A34   A(13,12,15)           114.959          estimate D2E/DX2                !
 ! A35   A(14,12,15)           114.7062         estimate D2E/DX2                !
 ! A36   A(4,15,11)             53.9766         estimate D2E/DX2                !
 ! A37   A(4,15,12)            100.2592         estimate D2E/DX2                !
 ! A38   A(4,15,16)            111.2583         estimate D2E/DX2                !
 ! A39   A(4,15,17)            110.2496         estimate D2E/DX2                !
 ! A40   A(11,15,16)            82.9939         estimate D2E/DX2                !
 ! A41   A(11,15,17)           164.225          estimate D2E/DX2                !
 ! A42   A(12,15,16)           114.9028         estimate D2E/DX2                !
 ! A43   A(12,15,17)           114.7866         estimate D2E/DX2                !
 ! A44   A(16,15,17)           105.452          estimate D2E/DX2                !
 ! D1    D(5,1,2,3)            179.0338         estimate D2E/DX2                !
 ! D2    D(5,1,2,6)             -2.5772         estimate D2E/DX2                !
 ! D3    D(9,1,2,3)              4.5857         estimate D2E/DX2                !
 ! D4    D(9,1,2,6)           -177.0253         estimate D2E/DX2                !
 ! D5    D(12,1,2,3)           -78.8012         estimate D2E/DX2                !
 ! D6    D(12,1,2,6)            99.5878         estimate D2E/DX2                !
 ! D7    D(2,1,9,4)             -6.9373         estimate D2E/DX2                !
 ! D8    D(2,1,9,10)           109.0877         estimate D2E/DX2                !
 ! D9    D(2,1,9,11)          -129.9156         estimate D2E/DX2                !
 ! D10   D(5,1,9,4)            178.3828         estimate D2E/DX2                !
 ! D11   D(5,1,9,10)           -65.5922         estimate D2E/DX2                !
 ! D12   D(5,1,9,11)            55.4045         estimate D2E/DX2                !
 ! D13   D(12,1,9,4)            81.6553         estimate D2E/DX2                !
 ! D14   D(12,1,9,10)         -162.3197         estimate D2E/DX2                !
 ! D15   D(12,1,9,11)          -41.323          estimate D2E/DX2                !
 ! D16   D(2,1,12,11)          128.7951         estimate D2E/DX2                !
 ! D17   D(2,1,12,13)          -51.5635         estimate D2E/DX2                !
 ! D18   D(2,1,12,14)         -168.2097         estimate D2E/DX2                !
 ! D19   D(2,1,12,15)           69.9607         estimate D2E/DX2                !
 ! D20   D(5,1,12,11)         -103.4667         estimate D2E/DX2                !
 ! D21   D(5,1,12,13)           76.1747         estimate D2E/DX2                !
 ! D22   D(5,1,12,14)          -40.4715         estimate D2E/DX2                !
 ! D23   D(5,1,12,15)         -162.3011         estimate D2E/DX2                !
 ! D24   D(9,1,12,11)           19.5712         estimate D2E/DX2                !
 ! D25   D(9,1,12,13)         -160.7874         estimate D2E/DX2                !
 ! D26   D(9,1,12,14)           82.5664         estimate D2E/DX2                !
 ! D27   D(9,1,12,15)          -39.2632         estimate D2E/DX2                !
 ! D28   D(1,2,3,4)              0.024          estimate D2E/DX2                !
 ! D29   D(1,2,3,7)            178.4371         estimate D2E/DX2                !
 ! D30   D(6,2,3,4)           -178.4059         estimate D2E/DX2                !
 ! D31   D(6,2,3,7)              0.0072         estimate D2E/DX2                !
 ! D32   D(2,3,4,8)           -179.0282         estimate D2E/DX2                !
 ! D33   D(2,3,4,9)             -4.6237         estimate D2E/DX2                !
 ! D34   D(2,3,4,15)            78.841          estimate D2E/DX2                !
 ! D35   D(7,3,4,8)              2.6            estimate D2E/DX2                !
 ! D36   D(7,3,4,9)            177.0045         estimate D2E/DX2                !
 ! D37   D(7,3,4,15)           -99.5308         estimate D2E/DX2                !
 ! D38   D(3,4,9,1)              6.9522         estimate D2E/DX2                !
 ! D39   D(3,4,9,10)          -109.0743         estimate D2E/DX2                !
 ! D40   D(3,4,9,11)           129.8961         estimate D2E/DX2                !
 ! D41   D(8,4,9,1)           -178.4109         estimate D2E/DX2                !
 ! D42   D(8,4,9,10)            65.5627         estimate D2E/DX2                !
 ! D43   D(8,4,9,11)           -55.4669         estimate D2E/DX2                !
 ! D44   D(15,4,9,1)           -81.5694         estimate D2E/DX2                !
 ! D45   D(15,4,9,10)          162.4042         estimate D2E/DX2                !
 ! D46   D(15,4,9,11)           41.3746         estimate D2E/DX2                !
 ! D47   D(3,4,15,11)         -128.7923         estimate D2E/DX2                !
 ! D48   D(3,4,15,12)          -70.4093         estimate D2E/DX2                !
 ! D49   D(3,4,15,16)          167.6135         estimate D2E/DX2                !
 ! D50   D(3,4,15,17)           50.9826         estimate D2E/DX2                !
 ! D51   D(8,4,15,11)          103.4978         estimate D2E/DX2                !
 ! D52   D(8,4,15,12)          161.8807         estimate D2E/DX2                !
 ! D53   D(8,4,15,16)           39.9035         estimate D2E/DX2                !
 ! D54   D(8,4,15,17)          -76.7274         estimate D2E/DX2                !
 ! D55   D(9,4,15,11)          -19.5573         estimate D2E/DX2                !
 ! D56   D(9,4,15,12)           38.8257         estimate D2E/DX2                !
 ! D57   D(9,4,15,16)          -83.1515         estimate D2E/DX2                !
 ! D58   D(9,4,15,17)          160.2176         estimate D2E/DX2                !
 ! D59   D(1,9,11,12)           40.2584         estimate D2E/DX2                !
 ! D60   D(1,9,11,15)           76.3491         estimate D2E/DX2                !
 ! D61   D(4,9,11,12)          -76.3155         estimate D2E/DX2                !
 ! D62   D(4,9,11,15)          -40.2248         estimate D2E/DX2                !
 ! D63   D(10,9,11,12)         161.956          estimate D2E/DX2                !
 ! D64   D(10,9,11,15)        -161.9533         estimate D2E/DX2                !
 ! D65   D(9,11,12,1)          -27.5917         estimate D2E/DX2                !
 ! D66   D(9,11,12,13)         -28.8186         estimate D2E/DX2                !
 ! D67   D(9,11,12,14)        -150.8158         estimate D2E/DX2                !
 ! D68   D(9,11,15,4)           27.5729         estimate D2E/DX2                !
 ! D69   D(9,11,15,16)         150.3269         estimate D2E/DX2                !
 ! D70   D(9,11,15,17)          26.796          estimate D2E/DX2                !
 ! D71   D(1,12,15,4)            0.2114         estimate D2E/DX2                !
 ! D72   D(1,12,15,16)         119.5691         estimate D2E/DX2                !
 ! D73   D(1,12,15,17)        -117.8882         estimate D2E/DX2                !
 ! D74   D(13,12,15,4)         118.1696         estimate D2E/DX2                !
 ! D75   D(13,12,15,16)       -122.4726         estimate D2E/DX2                !
 ! D76   D(13,12,15,17)          0.0701         estimate D2E/DX2                !
 ! D77   D(14,12,15,4)        -119.2292         estimate D2E/DX2                !
 ! D78   D(14,12,15,16)          0.1286         estimate D2E/DX2                !
 ! D79   D(14,12,15,17)        122.6713         estimate D2E/DX2                !
 --------------------------------------------------------------------------------
 Trust Radius=3.00D-01 FncErr=1.00D-07 GrdErr=1.00D-06 EigMax=2.50D+02 EigMin=1.00D-04
 Number of steps in this run=    102 maximum allowed number of steps=    102.
 GradGradGradGradGradGradGradGradGradGradGradGradGradGradGradGradGradGrad

                          Input orientation:                          
 ---------------------------------------------------------------------
 Center     Atomic      Atomic             Coordinates (Angstroms)
 Number     Number       Type             X           Y           Z
 ---------------------------------------------------------------------
      1          6           0       -0.793692    1.185372   -0.335690
      2          6           0       -1.119238    0.731433    0.897277
      3          6           0       -1.119089   -0.739821    0.890465
      4          6           0       -0.792932   -1.182308   -0.346523
      5          1           0       -0.724258    2.216348   -0.651778
      6          1           0       -1.323294    1.336406    1.769924
      7          1           0       -1.323127   -1.352915    1.757429
      8          1           0       -0.723300   -2.210380   -0.671910
      9          6           0       -0.663676    0.005770   -1.283827
     10          1           0       -1.509459    0.008682   -1.990906
     11          1           0        0.262871    0.009247   -1.861203
     12          6           0        1.530203    0.755208    0.082004
     13          1           0        1.847686    1.238528    1.073403
     14          1           0        2.204501    1.242055   -0.731379
     15          6           0        1.529908   -0.755715    0.080600
     16          1           0        2.204064   -1.244430   -0.730043
     17          1           0        1.846983   -1.238710    1.074604
 ---------------------------------------------------------------------
                    Distance matrix (angstroms):
                    1          2          3          4          5
     1  C    0.000000
     2  C    1.353606   0.000000
     3  C    2.305582   1.471270   0.000000
     4  C    2.367705   2.305628   1.353629   0.000000
     5  H    1.080576   2.181869   3.357580   3.413028   0.000000
     6  H    2.176442   1.081270   2.264038   3.332349   2.645332
     7  H    3.332319   2.264054   1.081269   2.176425   4.347708
     8  H    3.413082   3.357585   2.181790   1.080582   4.426774
     9  C    1.518989   2.343360   2.343257   1.518807   2.299959
    10  H    2.153291   3.002706   3.002490   2.153106   2.698813
    11  H    2.196995   3.168752   3.169005   2.197448   2.703410
    12  C    2.400000   2.772143   3.147613   3.055251   2.784953
    13  H    2.994202   3.015096   3.570586   3.853505   3.247657
    14  H    3.024722   3.736375   4.195767   3.874307   3.087590
    15  C    3.056179   3.145877   2.770075   2.400000   3.801420
    16  H    3.878916   4.194823   3.731491   3.022074   4.534113
    17  H    3.852047   3.565302   3.013367   2.998655   4.639946
                    6          7          8          9         10
     6  H    0.000000
     7  H    2.689350   0.000000
     8  H    4.347670   2.645133   0.000000
     9  C    3.395745   3.395606   2.299852   0.000000
    10  H    3.992662   3.992328   2.698524   1.102415   0.000000
    11  H    4.178798   4.179159   2.704384   1.091725   1.777070
    12  C    3.365904   3.923356   3.800181   2.690773   3.754172
    13  H    3.248051   4.151810   4.642311   3.658301   4.708814
    14  H    4.325593   5.037082   4.527125   3.171756   4.111097
    15  C    3.920656   3.362768   2.785546   2.693201   3.756752
    16  H    5.035157   4.317449   3.083164   3.177044   4.117076
    17  H    4.143109   3.244825   3.255888   3.662559   4.713708
                   11         12         13         14         15
    11  H    0.000000
    12  C    2.436933   0.000000
    13  H    3.554530   1.147722   0.000000
    14  H    2.562469   1.163310   1.839719   0.000000
    15  C    2.441546   1.510923   2.250254   2.259529   0.000000
    16  H    2.572831   2.260986   3.089418   2.486485   1.162098
    17  H    3.561709   2.249736   2.477238   3.089270   1.149724
                   16         17
    16  H    0.000000
    17  H    1.839644   0.000000
 Stoichiometry    C7H10
 Framework group  C1[X(C7H10)]
 Deg. of freedom    45
 Full point group                 C1      NOp   1
 Largest Abelian subgroup         C1      NOp   1
 Largest concise Abelian subgroup C1      NOp   1
                         Standard orientation:                         
 ---------------------------------------------------------------------
 Center     Atomic      Atomic             Coordinates (Angstroms)
 Number     Number       Type             X           Y           Z
 ---------------------------------------------------------------------
      1          6           0       -0.656974   -1.185179    0.364988
      2          6           0       -1.070994   -0.732521   -0.841634
      3          6           0       -1.070879    0.738738   -0.836232
      4          6           0       -0.656281    1.182510    0.373514
      5          1           0       -0.564495   -2.215830    0.676196
      6          1           0       -1.337405   -1.338393   -1.696671
      7          1           0       -1.337298    1.350939   -1.686747
      8          1           0       -0.563668    2.210915    0.692048
      9          6           0       -0.459156   -0.004628    1.300132
     10          1           0       -1.251590   -0.007103    2.066526
     11          1           0        0.506720   -0.007281    1.808995
     12          6           0        1.630477   -0.754745   -0.220072
     13          1           0        1.875607   -1.238928   -1.231379
     14          1           0        2.362003   -1.240614    0.542876
     15          6           0        1.629742    0.756178   -0.220069
     16          1           0        2.360581    1.245868    0.539240
     17          1           0        1.873932    1.238308   -1.234853
 ---------------------------------------------------------------------
 Rotational constants (GHZ):           3.6195169           2.6881708           2.4242049
 Standard basis: 3-21G (6D, 7F)
 There are    83 symmetry adapted cartesian basis functions of A   symmetry.
 There are    83 symmetry adapted basis functions of A   symmetry.
    83 basis functions,   135 primitive gaussians,    83 cartesian basis functions
    26 alpha electrons       26 beta electrons
       nuclear repulsion energy       288.3673948415 Hartrees.
 NAtoms=   17 NActive=   17 NUniq=   17 SFac= 1.00D+00 NAtFMM=   60 NAOKFM=F Big=F
 Integral buffers will be    131072 words long.
 Raffenetti 2 integral format.
 Two-electron integral symmetry is turned on.
 One-electron integrals computed using PRISM.
 NBasis=    83 RedAO= T EigKep=  4.38D-03  NBF=    83
 NBsUse=    83 1.00D-06 EigRej= -1.00D+00 NBFU=    83
 ExpMin= 1.83D-01 ExpMax= 1.72D+02 ExpMxC= 1.72D+02 IAcc=3 IRadAn=         5 AccDes= 0.00D+00
 Harris functional with IExCor=  402 and IRadAn=       5 diagonalized for initial guess.
 HarFok:  IExCor=  402 AccDes= 0.00D+00 IRadAn=         5 IDoV= 1 UseB2=F ITyADJ=14
 ICtDFT=  3500011 ScaDFX=  1.000000  1.000000  1.000000  1.000000
 FoFCou: FMM=F IPFlag=           0 FMFlag=      100000 FMFlg1=           0
         NFxFlg=           0 DoJE=T BraDBF=F KetDBF=T FulRan=T
         wScrn=  0.000000 ICntrl=       500 IOpCl=  0 I1Cent=   200000004 NGrid=           0
         NMat0=    1 NMatS0=      1 NMatT0=    0 NMatD0=    1 NMtDS0=    0 NMtDT0=    0
 Petite list used in FoFCou.
 Keep R1 ints in memory in canonical form, NReq=7891734.
 Requested convergence on RMS density matrix=1.00D-08 within 128 cycles.
 Requested convergence on MAX density matrix=1.00D-06.
 Requested convergence on             energy=1.00D-06.
 No special actions if energy rises.
 Integral accuracy reduced to 1.0D-05 until final iterations.
 Initial convergence to 1.0D-05 achieved.  Increase integral accuracy.
 SCF Done:  E(RB3LYP) =  -271.118084561     A.U. after   14 cycles
            NFock= 14  Conv=0.73D-08     -V/T= 2.0107

 **********************************************************************

            Population analysis using the SCF Density.

 **********************************************************************

 Orbital symmetries:
       Occupied  (A) (A) (A) (A) (A) (A) (A) (A) (A) (A) (A) (A)
                 (A) (A) (A) (A) (A) (A) (A) (A) (A) (A) (A) (A)
                 (A) (A)
       Virtual   (A) (A) (A) (A) (A) (A) (A) (A) (A) (A) (A) (A)
                 (A) (A) (A) (A) (A) (A) (A) (A) (A) (A) (A) (A)
                 (A) (A) (A) (A) (A) (A) (A) (A) (A) (A) (A) (A)
                 (A) (A) (A) (A) (A) (A) (A) (A) (A) (A) (A) (A)
                 (A) (A) (A) (A) (A) (A) (A) (A) (A)
 The electronic state is 1-A.
 Alpha  occ. eigenvalues --  -10.13335 -10.13293 -10.12262 -10.12123 -10.12051
 Alpha  occ. eigenvalues --  -10.12021 -10.11940  -0.86235  -0.71242  -0.70717
 Alpha  occ. eigenvalues --   -0.69446  -0.55300  -0.54624  -0.52864  -0.51749
 Alpha  occ. eigenvalues --   -0.44426  -0.40589  -0.40454  -0.37891  -0.36614
 Alpha  occ. eigenvalues --   -0.35963  -0.35770  -0.31061  -0.30323  -0.23488
 Alpha  occ. eigenvalues --   -0.19498
 Alpha virt. eigenvalues --   -0.01059  -0.00174   0.10194   0.12551   0.14011
 Alpha virt. eigenvalues --    0.14823   0.17885   0.18594   0.19095   0.19364
 Alpha virt. eigenvalues --    0.19820   0.21409   0.21646   0.25692   0.25942
 Alpha virt. eigenvalues --    0.30527   0.38077   0.40284   0.46941   0.67482
 Alpha virt. eigenvalues --    0.69532   0.69787   0.72507   0.72686   0.76433
 Alpha virt. eigenvalues --    0.77126   0.77503   0.80329   0.81306   0.81580
 Alpha virt. eigenvalues --    0.87089   0.90707   0.91173   0.95483   0.97675
 Alpha virt. eigenvalues --    0.99153   0.99609   1.00791   1.03271   1.04406
 Alpha virt. eigenvalues --    1.05676   1.06050   1.06182   1.08213   1.11328
 Alpha virt. eigenvalues --    1.17879   1.20306   1.31311   1.36203   1.39467
 Alpha virt. eigenvalues --    1.42766   1.65400   1.78260   1.91419   2.11593
 Alpha virt. eigenvalues --    2.18092   2.30728
          Condensed to atoms (all electrons):
               1          2          3          4          5          6
     1  C    5.273750   0.468200  -0.106259  -0.115624   0.392547  -0.038461
     2  C    0.468200   5.177664   0.441766  -0.106257  -0.035323   0.389214
     3  C   -0.106259   0.441766   5.177663   0.468127   0.003932  -0.031066
     4  C   -0.115624  -0.106257   0.468127   5.273875   0.002863   0.003523
     5  H    0.392547  -0.035323   0.003932   0.002863   0.482515  -0.002073
     6  H   -0.038461   0.389214  -0.031066   0.003523  -0.002073   0.496677
     7  H    0.003523  -0.031050   0.389201  -0.038463  -0.000048  -0.000875
     8  H    0.002865   0.003931  -0.035319   0.392539  -0.000029  -0.000048
     9  C    0.329333  -0.125461  -0.125501   0.329274  -0.029995   0.004456
    10  H   -0.039930   0.002934   0.002925  -0.039901  -0.000402  -0.000108
    11  H   -0.032864   0.003081   0.003083  -0.032798  -0.000502  -0.000070
    12  C    0.046744  -0.020411  -0.015678  -0.016024  -0.003637  -0.000063
    13  H   -0.004002  -0.002259   0.000305   0.000477  -0.000002   0.000099
    14  H   -0.001874   0.000119   0.000202   0.000634   0.000161   0.000000
    15  C   -0.015974  -0.015743  -0.020549   0.046771  -0.000019  -0.000063
    16  H    0.000632   0.000202   0.000111  -0.001916  -0.000001   0.000000
    17  H    0.000473   0.000305  -0.002252  -0.003964  -0.000001   0.000000
               7          8          9         10         11         12
     1  C    0.003523   0.002865   0.329333  -0.039930  -0.032864   0.046744
     2  C   -0.031050   0.003931  -0.125461   0.002934   0.003081  -0.020411
     3  C    0.389201  -0.035319  -0.125501   0.002925   0.003083  -0.015678
     4  C   -0.038463   0.392539   0.329274  -0.039901  -0.032798  -0.016024
     5  H   -0.000048  -0.000029  -0.029995  -0.000402  -0.000502  -0.003637
     6  H   -0.000875  -0.000048   0.004456  -0.000108  -0.000070  -0.000063
     7  H    0.496612  -0.002073   0.004456  -0.000108  -0.000070  -0.000063
     8  H   -0.002073   0.482516  -0.030003  -0.000402  -0.000502  -0.000019
     9  C    0.004456  -0.030003   5.415202   0.338124   0.369055  -0.031076
    10  H   -0.000108  -0.000402   0.338124   0.545168  -0.023677   0.002336
    11  H   -0.000070  -0.000502   0.369055  -0.023677   0.491827  -0.004500
    12  C   -0.000063  -0.000019  -0.031076   0.002336  -0.004500   5.363967
    13  H    0.000000  -0.000001   0.000552  -0.000011   0.000176   0.364673
    14  H    0.000000  -0.000001  -0.001059   0.000006   0.000283   0.354032
    15  C   -0.000066  -0.003637  -0.030774   0.002319  -0.004543   0.426075
    16  H    0.000000   0.000164  -0.001011   0.000006   0.000258  -0.040580
    17  H    0.000100  -0.000003   0.000546  -0.000011   0.000176  -0.040027
              13         14         15         16         17
     1  C   -0.004002  -0.001874  -0.015974   0.000632   0.000473
     2  C   -0.002259   0.000119  -0.015743   0.000202   0.000305
     3  C    0.000305   0.000202  -0.020549   0.000111  -0.002252
     4  C    0.000477   0.000634   0.046771  -0.001916  -0.003964
     5  H   -0.000002   0.000161  -0.000019  -0.000001  -0.000001
     6  H    0.000099   0.000000  -0.000063   0.000000   0.000000
     7  H    0.000000   0.000000  -0.000066   0.000000   0.000100
     8  H   -0.000001  -0.000001  -0.003637   0.000164  -0.000003
     9  C    0.000552  -0.001059  -0.030774  -0.001011   0.000546
    10  H   -0.000011   0.000006   0.002319   0.000006  -0.000011
    11  H    0.000176   0.000283  -0.004543   0.000258   0.000176
    12  C    0.364673   0.354032   0.426075  -0.040580  -0.040027
    13  H    0.560527  -0.042485  -0.039854   0.003217  -0.004494
    14  H   -0.042485   0.577368  -0.040811  -0.004218   0.003241
    15  C   -0.039854  -0.040811   5.363691   0.354160   0.364361
    16  H    0.003217  -0.004218   0.354160   0.576451  -0.042527
    17  H   -0.004494   0.003241   0.364361  -0.042527   0.561730
 Mulliken charges:
               1
     1  C   -0.163078
     2  C   -0.150912
     3  C   -0.150688
     4  C   -0.163136
     5  H    0.190015
     6  H    0.178857
     7  H    0.178923
     8  H    0.190025
     9  C   -0.416118
    10  H    0.210732
    11  H    0.231587
    12  C   -0.385747
    13  H    0.163083
    14  H    0.154403
    15  C   -0.385345
    16  H    0.155052
    17  H    0.162347
 Sum of Mulliken charges =  -0.00000
 Mulliken charges with hydrogens summed into heavy atoms:
               1
     1  C    0.026937
     2  C    0.027945
     3  C    0.028235
     4  C    0.026889
     9  C    0.026202
    12  C   -0.068262
    15  C   -0.067946
 Electronic spatial extent (au):  <R**2>=            683.0414
 Charge=             -0.0000 electrons
 Dipole moment (field-independent basis, Debye):
    X=             -0.2908    Y=              0.0011    Z=              0.3101  Tot=              0.4251
 Quadrupole moment (field-independent basis, Debye-Ang):
   XX=            -45.6607   YY=            -41.3072   ZZ=            -40.7729
   XY=             -0.0011   XZ=              1.0660   YZ=              0.0069
 Traceless Quadrupole moment (field-independent basis, Debye-Ang):
   XX=             -3.0804   YY=              1.2731   ZZ=              1.8073
   XY=             -0.0011   XZ=              1.0660   YZ=              0.0069
 Octapole moment (field-independent basis, Debye-Ang**2):
  XXX=              4.9895  YYY=             -0.0009  ZZZ=             -1.6852  XYY=             -2.1676
  XXY=              0.0193  XXZ=              0.2963  XZZ=             -2.5521  YZZ=              0.0019
  YYZ=              0.1120  XYZ=              0.0173
 Hexadecapole moment (field-independent basis, Debye-Ang**3):
 XXXX=           -448.6590 YYYY=           -265.4353 ZZZZ=           -217.0276 XXXY=              0.0227
 XXXZ=              5.3725 YYYX=             -0.0100 YYYZ=              0.0575 ZZZX=              3.6738
 ZZZY=              0.0314 XXYY=           -115.7700 XXZZ=           -100.5621 YYZZ=            -78.2677
 XXYZ=             -0.0017 YYXZ=              2.1609 ZZXY=             -0.0119
 N-N= 2.883673948415D+02 E-N=-1.203639409278D+03  KE= 2.682499655646D+02
 Calling FoFJK, ICntrl=      2127 FMM=F ISym2X=0 I1Cent= 0 IOpClX= 0 NMat=1 NMatS=1 NMatT=0.
 ***** Axes restored to original set *****
 -------------------------------------------------------------------
 Center     Atomic                   Forces (Hartrees/Bohr)
 Number     Number              X              Y              Z
 -------------------------------------------------------------------
      1        6           0.032256828    0.002456939   -0.013451977
      2        6          -0.017684552   -0.031155079    0.020317666
      3        6          -0.017623958    0.031005160    0.020632737
      4        6           0.032197105   -0.002390090   -0.013420542
      5        1          -0.002410670   -0.000701528   -0.000543536
      6        1           0.000972609   -0.000391767   -0.000024380
      7        1           0.000982906    0.000390378   -0.000020263
      8        1          -0.002401977    0.000705132   -0.000537453
      9        6          -0.015637093    0.000115571   -0.015420176
     10        1          -0.002893725   -0.000017427   -0.000025432
     11        1          -0.005968606   -0.000059840   -0.000911121
     12        6           0.062331489   -0.047599660    0.010099855
     13        1          -0.026678812   -0.012264975   -0.022844091
     14        1          -0.036469801   -0.014873124    0.014203580
     15        6           0.062189451    0.047370368    0.011892648
     16        1          -0.036200905    0.015006797    0.013697178
     17        1          -0.026960287    0.012403143   -0.023644693
 -------------------------------------------------------------------
 Cartesian Forces:  Max     0.062331489 RMS     0.022225364

 GradGradGradGradGradGradGradGradGradGradGradGradGradGradGradGradGradGrad
 Berny optimization.
 FormGI is forming the generalized inverse of G from B-inverse, IUseBI=4.
 Internal  Forces:  Max     0.059403282 RMS     0.009412874
 Search for a local minimum.
 Step number   1 out of a maximum of  102
 All quantities printed in internal units (Hartrees-Bohrs-Radians)
 Mixed Optimization -- RFO/linear search
 Second derivative matrix not updated -- first step.
 ITU=  0
     Eigenvalues ---    0.00660   0.01291   0.01526   0.01925   0.02295
     Eigenvalues ---    0.02465   0.02765   0.02955   0.03123   0.03715
     Eigenvalues ---    0.04373   0.04439   0.05094   0.05303   0.05744
     Eigenvalues ---    0.05876   0.06435   0.06843   0.06976   0.07027
     Eigenvalues ---    0.07075   0.09890   0.12499   0.12861   0.14071
     Eigenvalues ---    0.15986   0.15992   0.20923   0.25249   0.25664
     Eigenvalues ---    0.27550   0.27652   0.28732   0.28911   0.29230
     Eigenvalues ---    0.32916   0.33416   0.35841   0.35841   0.35924
     Eigenvalues ---    0.35925   0.45367   0.529931000.000001000.00000
     Eigenvalues --- 1000.000001000.000001000.000001000.000001000.00000
     Eigenvalues --- 1000.000001000.000001000.000001000.000001000.00000
     Eigenvalues --- 1000.000001000.000001000.000001000.000001000.00000
     Eigenvalues --- 1000.000001000.000001000.000001000.000001000.00000
     Eigenvalues --- 1000.000001000.000001000.000001000.000001000.00000
     Eigenvalues --- 1000.000001000.000001000.000001000.000001000.00000
     Eigenvalues --- 1000.000001000.000001000.000001000.000001000.00000
     Eigenvalues --- 1000.000001000.000001000.000001000.000001000.00000
     Eigenvalues --- 1000.000001000.000001000.000001000.000001000.00000
     Eigenvalues --- 1000.000001000.000001000.000001000.000001000.00000
     Eigenvalues --- 1000.000001000.000001000.000001000.000001000.00000
     Eigenvalues --- 1000.000001000.000001000.000001000.000001000.00000
     Eigenvalues --- 1000.000001000.000001000.000001000.000001000.00000
     Eigenvalues --- 1000.000001000.000001000.000001000.000001000.00000
     Eigenvalues --- 1000.000001000.000001000.000001000.000001000.00000
     Eigenvalues --- 1000.000001000.000001000.000001000.000001000.00000
     Eigenvalues --- 1000.000001000.000001000.000001000.000001000.00000
     Eigenvalues --- 1000.000001000.000001000.000001000.000001000.00000
     Eigenvalues --- 1000.000001000.000001000.000001000.000001000.00000
     Eigenvalues --- 1000.000001000.000001000.00000
 RFO step:  Lambda=-4.61428712D-02 EMin= 6.60112772D-03
 Linear search not attempted -- first point.
 Maximum step size (   0.300) exceeded in Quadratic search.
    -- Step size scaled by   0.816
 Iteration  1 RMS(Cart)=  0.02739566 RMS(Int)=  0.00098943
 Iteration  2 RMS(Cart)=  0.00078576 RMS(Int)=  0.00034442
 Iteration  3 RMS(Cart)=  0.00000105 RMS(Int)=  0.00034442
 Iteration  4 RMS(Cart)=  0.00000000 RMS(Int)=  0.00034442
 Iteration  1 RMS(Cart)=  0.00002793 RMS(Int)=  0.00000885
 Iteration  2 RMS(Cart)=  0.00000449 RMS(Int)=  0.00000943
 Iteration  3 RMS(Cart)=  0.00000072 RMS(Int)=  0.00000962
 Variable       Old X    -DE/DX   Delta X   Delta X   Delta X     New X
                                 (Linear)    (Quad)   (Total)
    R1        2.55794   0.02357   0.00000   0.03338   0.03353   2.59147
    R2        2.04199  -0.00067   0.00000  -0.00134  -0.00134   2.04065
    R3        2.87047  -0.00238   0.00000  -0.00320  -0.00330   2.86717
    R4        4.53534   0.00062   0.00000   0.00000  -0.00000   4.53534
    R5        2.78030  -0.02873   0.00000  -0.05500  -0.05456   2.72574
    R6        2.04330  -0.00042   0.00000  -0.00085  -0.00085   2.04245
    R7        2.55799   0.02360   0.00000   0.03344   0.03358   2.59157
    R8        2.04330  -0.00042   0.00000  -0.00085  -0.00085   2.04245
    R9        2.04200  -0.00066   0.00000  -0.00134  -0.00134   2.04067
   R10        2.87013  -0.00229   0.00000  -0.00309  -0.00321   2.86692
   R11        4.53534   0.00059   0.00000   0.00000  -0.00000   4.53534
   R12        2.08326   0.00224   0.00000   0.00480   0.00480   2.08806
   R13        2.06306  -0.00597   0.00000  -0.00523  -0.00490   2.05816
   R14        4.60514  -0.00211   0.00000   0.02794   0.02819   4.63333
   R15        4.61385  -0.00215   0.00000   0.02826   0.02842   4.64227
   R16        2.16888  -0.03228   0.00000  -0.07852  -0.07852   2.09036
   R17        2.19834  -0.03730   0.00000  -0.09456  -0.09456   2.10377
   R18        2.85523  -0.05940   0.00000  -0.15733  -0.15803   2.69721
   R19        2.19605  -0.03687   0.00000  -0.09318  -0.09318   2.10287
   R20        2.17266  -0.03309   0.00000  -0.08092  -0.08092   2.09174
    A1        2.21663  -0.00213   0.00000  -0.00700  -0.00721   2.20942
    A2        1.90574   0.00276   0.00000   0.00878   0.00803   1.91377
    A3        1.58504   0.00198   0.00000   0.02823   0.02809   1.61313
    A4        2.15656  -0.00106   0.00000  -0.00627  -0.00650   2.15007
    A5        1.73118   0.00339   0.00000   0.00644   0.00639   1.73758
    A6        1.45712  -0.00108   0.00000   0.01217   0.01235   1.46946
    A7        1.90828  -0.00031   0.00000  -0.00264  -0.00303   1.90525
    A8        2.20543   0.00033   0.00000   0.00178   0.00187   2.20730
    A9        2.16911  -0.00011   0.00000   0.00030   0.00038   2.16949
   A10        1.90831  -0.00030   0.00000  -0.00260  -0.00299   1.90531
   A11        2.16914  -0.00012   0.00000   0.00028   0.00037   2.16951
   A12        2.20536   0.00033   0.00000   0.00175   0.00184   2.20721
   A13        2.21643  -0.00211   0.00000  -0.00696  -0.00716   2.20927
   A14        1.90578   0.00272   0.00000   0.00870   0.00796   1.91374
   A15        1.58326   0.00199   0.00000   0.02807   0.02794   1.61120
   A16        2.15666  -0.00104   0.00000  -0.00625  -0.00649   2.15017
   A17        1.73182   0.00338   0.00000   0.00643   0.00638   1.73820
   A18        1.45898  -0.00111   0.00000   0.01214   0.01231   1.47130
   A19        1.78746  -0.00608   0.00000  -0.02259  -0.02322   1.76425
   A20        1.90989   0.00433   0.00000   0.01840   0.01848   1.92837
   A21        1.98262  -0.00007   0.00000  -0.00972  -0.00977   1.97285
   A22        1.90985   0.00433   0.00000   0.01831   0.01838   1.92824
   A23        1.98351   0.00000   0.00000  -0.00927  -0.00938   1.97414
   A24        1.88800  -0.00211   0.00000   0.00596   0.00596   1.89396
   A25        1.59142   0.00061   0.00000   0.00329   0.00325   1.59467
   A26        1.58962   0.00059   0.00000   0.00310   0.00309   1.59271
   A27        0.94286  -0.00150   0.00000  -0.00802  -0.00802   0.93484
   A28        1.92059  -0.00712   0.00000  -0.04183  -0.04193   1.87866
   A29        1.94396  -0.00858   0.00000  -0.05560  -0.05561   1.88834
   A30        1.75065   0.00498   0.00000   0.01248   0.01239   1.76304
   A31        2.86340  -0.00863   0.00000  -0.04988  -0.04999   2.81341
   A32        1.44245  -0.00616   0.00000  -0.03639  -0.03679   1.40566
   A33        1.84148   0.00876   0.00000   0.04962   0.04753   1.88901
   A34        2.00641  -0.00237   0.00000   0.00242   0.00254   2.00895
   A35        2.00200   0.00259   0.00000   0.02181   0.02168   2.02368
   A36        0.94207  -0.00145   0.00000  -0.00789  -0.00790   0.93417
   A37        1.74985   0.00501   0.00000   0.01258   0.01250   1.76235
   A38        1.94182  -0.00853   0.00000  -0.05535  -0.05538   1.88645
   A39        1.92422  -0.00710   0.00000  -0.04209  -0.04223   1.88199
   A40        1.44852  -0.00615   0.00000  -0.03636  -0.03678   1.41173
   A41        2.86627  -0.00855   0.00000  -0.04996  -0.05011   2.81616
   A42        2.00543   0.00242   0.00000   0.02072   0.02057   2.02600
   A43        2.00340  -0.00242   0.00000   0.00279   0.00303   2.00644
   A44        1.84049   0.00890   0.00000   0.05029   0.04815   1.88864
    D1        3.12473   0.00056   0.00000  -0.00545  -0.00522   3.11951
    D2       -0.04498  -0.00289   0.00000  -0.02713  -0.02699  -0.07197
    D3        0.08004   0.00548   0.00000   0.04582   0.04607   0.12611
    D4       -3.08967   0.00203   0.00000   0.02414   0.02430  -3.06537
    D5       -1.37534   0.00600   0.00000   0.02331   0.02317  -1.35217
    D6        1.73814   0.00255   0.00000   0.00163   0.00140   1.73953
    D7       -0.12108  -0.00783   0.00000  -0.06757  -0.06721  -0.18829
    D8        1.90394  -0.00413   0.00000  -0.05033  -0.05041   1.85353
    D9       -2.26745  -0.00376   0.00000  -0.03596  -0.03604  -2.30349
   D10        3.11337  -0.00303   0.00000  -0.01835  -0.01793   3.09544
   D11       -1.14480   0.00068   0.00000  -0.00111  -0.00113  -1.14593
   D12        0.96699   0.00104   0.00000   0.01325   0.01325   0.98024
   D13        1.42515  -0.00643   0.00000  -0.03428  -0.03378   1.39137
   D14       -2.83301  -0.00273   0.00000  -0.01704  -0.01699  -2.85000
   D15       -0.72122  -0.00236   0.00000  -0.00268  -0.00261  -0.72383
   D16        2.24790   0.00306   0.00000   0.00687   0.00667   2.25457
   D17       -0.89995   0.00263   0.00000   0.00457   0.00435  -0.89560
   D18       -2.93581   0.00145   0.00000   0.00302   0.00255  -2.93327
   D19        1.22104  -0.00051   0.00000  -0.00419  -0.00431   1.21673
   D20       -1.80583   0.00180   0.00000   0.00672   0.00679  -1.79905
   D21        1.32950   0.00137   0.00000   0.00442   0.00447   1.33397
   D22       -0.70636   0.00018   0.00000   0.00287   0.00266  -0.70370
   D23       -2.83269  -0.00178   0.00000  -0.00434  -0.00419  -2.83688
   D24        0.34158   0.00049   0.00000   0.00161   0.00163   0.34321
   D25       -2.80627   0.00006   0.00000  -0.00069  -0.00069  -2.80696
   D26        1.44106  -0.00113   0.00000  -0.00225  -0.00250   1.43856
   D27       -0.68527  -0.00309   0.00000  -0.00946  -0.00935  -0.69462
   D28        0.00042  -0.00002   0.00000  -0.00016  -0.00016   0.00026
   D29        3.11432  -0.00336   0.00000  -0.02113  -0.02120   3.09312
   D30       -3.11377   0.00333   0.00000   0.02094   0.02101  -3.09276
   D31        0.00013  -0.00001   0.00000  -0.00004  -0.00003   0.00009
   D32       -3.12463  -0.00056   0.00000   0.00544   0.00522  -3.11941
   D33       -0.08070  -0.00545   0.00000  -0.04559  -0.04584  -0.12653
   D34        1.37603  -0.00601   0.00000  -0.02317  -0.02303   1.35301
   D35        0.04538   0.00288   0.00000   0.02699   0.02686   0.07224
   D36        3.08931  -0.00202   0.00000  -0.02404  -0.02419   3.06512
   D37       -1.73714  -0.00257   0.00000  -0.00162  -0.00139  -1.73853
   D38        0.12134   0.00781   0.00000   0.06747   0.06711   0.18845
   D39       -1.90370   0.00411   0.00000   0.05015   0.05024  -1.85347
   D40        2.26711   0.00369   0.00000   0.03553   0.03562   2.30274
   D41       -3.11386   0.00304   0.00000   0.01847   0.01804  -3.09581
   D42        1.14429  -0.00066   0.00000   0.00116   0.00117   1.14546
   D43       -0.96808  -0.00108   0.00000  -0.01347  -0.01344  -0.98152
   D44       -1.42365   0.00641   0.00000   0.03435   0.03384  -1.38981
   D45        2.83449   0.00271   0.00000   0.01703   0.01697   2.85146
   D46        0.72212   0.00229   0.00000   0.00241   0.00236   0.72448
   D47       -2.24785  -0.00297   0.00000  -0.00660  -0.00643  -2.25428
   D48       -1.22887   0.00045   0.00000   0.00359   0.00370  -1.22517
   D49        2.92541  -0.00135   0.00000  -0.00250  -0.00204   2.92337
   D50        0.88981  -0.00273   0.00000  -0.00477  -0.00444   0.88537
   D51        1.80638  -0.00172   0.00000  -0.00642  -0.00653   1.79984
   D52        2.82535   0.00170   0.00000   0.00377   0.00361   2.82896
   D53        0.69645  -0.00009   0.00000  -0.00232  -0.00214   0.69431
   D54       -1.33915  -0.00147   0.00000  -0.00459  -0.00454  -1.34369
   D55       -0.34134  -0.00044   0.00000  -0.00138  -0.00142  -0.34276
   D56        0.67764   0.00298   0.00000   0.00882   0.00872   0.68635
   D57       -1.45127   0.00119   0.00000   0.00273   0.00297  -1.44830
   D58        2.79632  -0.00019   0.00000   0.00046   0.00057   2.79689
   D59        0.70264   0.00268   0.00000  -0.00132  -0.00147   0.70117
   D60        1.33254  -0.01056   0.00000  -0.04116  -0.04113   1.29142
   D61       -1.33196   0.01064   0.00000   0.04150   0.04143  -1.29053
   D62       -0.70206  -0.00261   0.00000   0.00167   0.00177  -0.70028
   D63        2.82667   0.00664   0.00000   0.01999   0.01990   2.84656
   D64       -2.82662  -0.00661   0.00000  -0.01984  -0.01976  -2.84637
   D65       -0.48157  -0.00174   0.00000  -0.00386  -0.00378  -0.48534
   D66       -0.50298  -0.00261   0.00000  -0.00832  -0.00771  -0.51069
   D67       -2.63223   0.00335   0.00000   0.03354   0.03334  -2.59890
   D68        0.48124   0.00167   0.00000   0.00353   0.00347   0.48471
   D69        2.62370  -0.00340   0.00000  -0.03373  -0.03347   2.59023
   D70        0.46768   0.00289   0.00000   0.01203   0.01126   0.47894
   D71        0.00369   0.00002   0.00000   0.00024   0.00024   0.00393
   D72        2.08687  -0.00588   0.00000  -0.04838  -0.04874   2.03813
   D73       -2.05754   0.00646   0.00000   0.04129   0.04141  -2.01613
   D74        2.06245  -0.00643   0.00000  -0.04076  -0.04089   2.02156
   D75       -2.13755  -0.01233   0.00000  -0.08938  -0.08987  -2.22742
   D76        0.00122   0.00001   0.00000   0.00029   0.00028   0.00150
   D77       -2.08094   0.00593   0.00000   0.04866   0.04901  -2.03194
   D78        0.00224   0.00002   0.00000   0.00004   0.00003   0.00227
   D79        2.14102   0.01237   0.00000   0.08971   0.09018   2.23119
         Item               Value     Threshold  Converged?
 Maximum Force            0.059324     0.000450     NO 
 RMS     Force            0.009479     0.000300     NO 
 Maximum Displacement     0.107557     0.001800     NO 
 RMS     Displacement     0.027662     0.001200     NO 
 Predicted change in Energy=-2.574108D-02
 GradGradGradGradGradGradGradGradGradGradGradGradGradGradGradGradGradGrad

                          Input orientation:                          
 ---------------------------------------------------------------------
 Center     Atomic      Atomic             Coordinates (Angstroms)
 Number     Number       Type             X           Y           Z
 ---------------------------------------------------------------------
      1          6           0       -0.759888    1.172829   -0.330973
      2          6           0       -1.130195    0.716934    0.908232
      3          6           0       -1.130012   -0.725449    0.901601
      4          6           0       -0.759260   -1.169941   -0.341661
      5          1           0       -0.685871    2.204376   -0.641692
      6          1           0       -1.343711    1.322025    1.777970
      7          1           0       -1.343452   -1.338584    1.765704
      8          1           0       -0.685049   -2.198645   -0.661648
      9          6           0       -0.661116    0.005760   -1.295452
     10          1           0       -1.516517    0.008611   -1.994881
     11          1           0        0.260375    0.009467   -1.876009
     12          6           0        1.559468    0.713318    0.080655
     13          1           0        1.827822    1.181927    1.046061
     14          1           0        2.158091    1.200788   -0.721461
     15          6           0        1.559044   -0.713981    0.079723
     16          1           0        2.158259   -1.202872   -0.720418
     17          1           0        1.826162   -1.181793    1.046694
 ---------------------------------------------------------------------
                    Distance matrix (angstroms):
                    1          2          3          4          5
     1  C    0.000000
     2  C    1.371349   0.000000
     3  C    2.293402   1.442397   0.000000
     4  C    2.342794   2.293495   1.371398   0.000000
     5  H    1.079868   2.193667   3.341091   3.388425   0.000000
     6  H    2.193342   1.080819   2.237373   3.323299   2.658207
     7  H    3.323222   2.237385   1.080817   2.193333   4.333652
     8  H    3.388478   3.341149   2.193638   1.079875   4.403066
     9  C    1.517243   2.362631   2.362535   1.517109   2.293890
    10  H    2.167137   3.013143   3.012945   2.166924   2.709701
    11  H    2.186660   3.191581   3.191927   2.187437   2.690083
    12  C    2.399999   2.814104   3.158687   3.016871   2.790446
    13  H    2.931305   2.997512   3.522461   3.761655   3.195711
    14  H    2.944123   3.701735   4.142021   3.778298   3.016898
    15  C    3.017643   3.156889   2.811875   2.400000   3.751919
    16  H    3.783015   4.141507   3.697514   2.942186   4.438988
    17  H    3.758971   3.516302   2.994707   2.934634   4.541707
                    6          7          8          9         10
     6  H    0.000000
     7  H    2.660638   0.000000
     8  H    4.333669   2.658051   0.000000
     9  C    3.412391   3.412260   2.293835   0.000000
    10  H    3.998665   3.998361   2.709396   1.104952   0.000000
    11  H    4.200888   4.201378   2.691516   1.089131   1.780864
    12  C    3.417580   3.934036   3.750786   2.706529   3.777055
    13  H    3.257904   4.114346   4.545223   3.613982   4.669968
    14  H    4.304007   4.989510   4.432061   3.115363   4.067632
    15  C    3.931330   3.414256   2.791023   2.708920   3.779576
    16  H    4.988070   4.296650   3.013207   3.120951   4.073810
    17  H    4.105115   3.253922   3.202905   3.616971   4.673515
                   11         12         13         14         15
    11  H    0.000000
    12  C    2.451852   0.000000
    13  H    3.517107   1.106173   0.000000
    14  H    2.520625   1.113269   1.798213   0.000000
    15  C    2.456584   1.427300   2.144882   2.160346   0.000000
    16  H    2.531229   2.161493   2.986118   2.403660   1.112789
    17  H    3.523206   2.143783   2.363721   2.985505   1.106902
                   16         17
    16  H    0.000000
    17  H    1.798170   0.000000
 Stoichiometry    C7H10
 Framework group  C1[X(C7H10)]
 Deg. of freedom    45
 Full point group                 C1      NOp   1
 Largest Abelian subgroup         C1      NOp   1
 Largest concise Abelian subgroup C1      NOp   1
                         Standard orientation:                         
 ---------------------------------------------------------------------
 Center     Atomic      Atomic             Coordinates (Angstroms)
 Number     Number       Type             X           Y           Z
 ---------------------------------------------------------------------
      1          6           0       -0.628084   -1.172954    0.369102
      2          6           0       -1.105241   -0.717838   -0.833307
      3          6           0       -1.105235    0.724547   -0.827353
      4          6           0       -0.627751    1.169820    0.378662
      5          1           0       -0.526724   -2.204315    0.672641
      6          1           0       -1.393443   -1.323454   -1.680856
      7          1           0       -1.393506    1.337161   -1.669831
      8          1           0       -0.526467    2.198715    0.690508
      9          6           0       -0.446225   -0.005370    1.320785
     10          1           0       -1.237398   -0.008295    2.092118
     11          1           0        0.522368   -0.008352    1.818807
     12          6           0        1.646321   -0.712524   -0.243340
     13          1           0        1.829744   -1.181471   -1.228258
     14          1           0        2.312841   -1.199316    0.503755
     15          6           0        1.645234    0.714775   -0.243004
     16          1           0        2.311661    1.204342    0.501642
     17          1           0        1.826800    1.182247   -1.229785
 ---------------------------------------------------------------------
 Rotational constants (GHZ):           3.6930104           2.6601494           2.4469143
 Standard basis: 3-21G (6D, 7F)
 There are    83 symmetry adapted cartesian basis functions of A   symmetry.
 There are    83 symmetry adapted basis functions of A   symmetry.
    83 basis functions,   135 primitive gaussians,    83 cartesian basis functions
    26 alpha electrons       26 beta electrons
       nuclear repulsion energy       289.9819938778 Hartrees.
 NAtoms=   17 NActive=   17 NUniq=   17 SFac= 1.00D+00 NAtFMM=   60 NAOKFM=F Big=F
 Integral buffers will be    131072 words long.
 Raffenetti 2 integral format.
 Two-electron integral symmetry is turned on.
 One-electron integrals computed using PRISM.
 NBasis=    83 RedAO= T EigKep=  4.37D-03  NBF=    83
 NBsUse=    83 1.00D-06 EigRej= -1.00D+00 NBFU=    83
 Initial guess from the checkpoint file:  "C3.chk"
 B after Tr=     0.000000   -0.000000    0.000000
         Rot=    0.999970   -0.000234   -0.007731   -0.000086 Ang=  -0.89 deg.
 ExpMin= 1.83D-01 ExpMax= 1.72D+02 ExpMxC= 1.72D+02 IAcc=3 IRadAn=         5 AccDes= 0.00D+00
 Harris functional with IExCor=  402 and IRadAn=       5 diagonalized for initial guess.
 HarFok:  IExCor=  402 AccDes= 0.00D+00 IRadAn=         5 IDoV= 1 UseB2=F ITyADJ=14
 ICtDFT=  3500011 ScaDFX=  1.000000  1.000000  1.000000  1.000000
 FoFCou: FMM=F IPFlag=           0 FMFlag=      100000 FMFlg1=           0
         NFxFlg=           0 DoJE=T BraDBF=F KetDBF=T FulRan=T
         wScrn=  0.000000 ICntrl=       500 IOpCl=  0 I1Cent=   200000004 NGrid=           0
         NMat0=    1 NMatS0=      1 NMatT0=    0 NMatD0=    1 NMtDS0=    0 NMtDT0=    0
 Petite list used in FoFCou.
 Keep R1 ints in memory in canonical form, NReq=7891734.
 Requested convergence on RMS density matrix=1.00D-08 within 128 cycles.
 Requested convergence on MAX density matrix=1.00D-06.
 Requested convergence on             energy=1.00D-06.
 No special actions if energy rises.
 Integral accuracy reduced to 1.0D-05 until final iterations.
 Initial convergence to 1.0D-05 achieved.  Increase integral accuracy.
 SCF Done:  E(RB3LYP) =  -271.146886973     A.U. after   13 cycles
            NFock= 13  Conv=0.54D-08     -V/T= 2.0096
 Calling FoFJK, ICntrl=      2127 FMM=F ISym2X=0 I1Cent= 0 IOpClX= 0 NMat=1 NMatS=1 NMatT=0.
 ***** Axes restored to original set *****
 -------------------------------------------------------------------
 Center     Atomic                   Forces (Hartrees/Bohr)
 Number     Number              X              Y              Z
 -------------------------------------------------------------------
      1        6           0.020898386    0.005462059   -0.002106215
      2        6          -0.010534823   -0.012411261    0.003720676
      3        6          -0.010491807    0.012397013    0.003843512
      4        6           0.020893165   -0.005472027   -0.002096278
      5        1          -0.002270528    0.000396376   -0.000184723
      6        1           0.001094615    0.000867268   -0.000518274
      7        1           0.001098960   -0.000864578   -0.000524836
      8        1          -0.002264726   -0.000392852   -0.000186707
      9        6          -0.010192226    0.000079681   -0.005347300
     10        1          -0.001497934   -0.000021743    0.002915180
     11        1          -0.004478173   -0.000075816   -0.002788829
     12        6           0.042102037   -0.028290767    0.008277675
     13        1          -0.020201372    0.000061876   -0.006577495
     14        1          -0.022962427   -0.002496653   -0.000235507
     15        6           0.041981563    0.028251545    0.009319141
     16        1          -0.022835237    0.002603580   -0.000524988
     17        1          -0.020339473   -0.000093702   -0.006985031
 -------------------------------------------------------------------
 Cartesian Forces:  Max     0.042102037 RMS     0.013247485

 GradGradGradGradGradGradGradGradGradGradGradGradGradGradGradGradGradGrad
 Berny optimization.
 Using GEDIIS/GDIIS optimizer.
 FormGI is forming the generalized inverse of G from B-inverse, IUseBI=4.
 Internal  Forces:  Max     0.022311250 RMS     0.004263047
 Search for a local minimum.
 Step number   2 out of a maximum of  102
 All quantities printed in internal units (Hartrees-Bohrs-Radians)
 Mixed Optimization -- RFO/linear search
 Update second derivatives using D2CorX and points    1    2
 DE= -2.88D-02 DEPred=-2.57D-02 R= 1.12D+00
 TightC=F SS=  1.41D+00  RLast= 3.88D-01 DXNew= 5.0454D-01 1.1629D+00
 Trust test= 1.12D+00 RLast= 3.88D-01 DXMaxT set to 5.05D-01
 ITU=  1  0
 Use linear search instead of GDIIS.
     Eigenvalues ---    0.00710   0.01570   0.01590   0.01930   0.02303
     Eigenvalues ---    0.02501   0.02753   0.02979   0.03103   0.03732
     Eigenvalues ---    0.04231   0.04328   0.04839   0.05271   0.05328
     Eigenvalues ---    0.05854   0.06433   0.06583   0.06650   0.07079
     Eigenvalues ---    0.07372   0.09717   0.12376   0.13027   0.14036
     Eigenvalues ---    0.15955   0.15961   0.20916   0.25500   0.25603
     Eigenvalues ---    0.27595   0.27964   0.28817   0.29178   0.30150
     Eigenvalues ---    0.33248   0.33896   0.35841   0.35841   0.35924
     Eigenvalues ---    0.35949   0.45211   0.537551000.000001000.00000
     Eigenvalues --- 1000.000001000.000001000.000001000.000001000.00000
     Eigenvalues --- 1000.000001000.000001000.000001000.000001000.00000
     Eigenvalues --- 1000.000001000.000001000.000001000.000001000.00000
     Eigenvalues --- 1000.000001000.000001000.000001000.000001000.00000
     Eigenvalues --- 1000.000001000.000001000.000001000.000001000.00000
     Eigenvalues --- 1000.000001000.000001000.000001000.000001000.00000
     Eigenvalues --- 1000.000001000.000001000.000001000.000001000.00000
     Eigenvalues --- 1000.000001000.000001000.000001000.000001000.00000
     Eigenvalues --- 1000.000001000.000001000.000001000.000001000.00000
     Eigenvalues --- 1000.000001000.000001000.000001000.000001000.00000
     Eigenvalues --- 1000.000001000.000001000.000001000.000001000.00000
     Eigenvalues --- 1000.000001000.000001000.000001000.000001000.00000
     Eigenvalues --- 1000.000001000.000001000.000001000.000001000.00000
     Eigenvalues --- 1000.000001000.000001000.000001000.000001000.00000
     Eigenvalues --- 1000.000001000.000001000.000001000.000001000.00000
     Eigenvalues --- 1000.000001000.000001000.000001000.000001000.00000
     Eigenvalues --- 1000.000001000.000001000.000001000.000001000.00000
     Eigenvalues --- 1000.000001000.000001000.000001000.000001000.00000
     Eigenvalues --- 1000.000001000.000001000.000001000.000001000.00000
     Eigenvalues --- 1000.000001000.000001000.00000
 RFO step:  Lambda=-1.18749320D-02 EMin= 7.09617136D-03
 Quartic linear search produced a step of  0.74899.
 Iteration  1 RMS(Cart)=  0.03356821 RMS(Int)=  0.00432721
 Iteration  2 RMS(Cart)=  0.00290858 RMS(Int)=  0.00313396
 Iteration  3 RMS(Cart)=  0.00001239 RMS(Int)=  0.00313392
 Iteration  4 RMS(Cart)=  0.00000011 RMS(Int)=  0.00313392
 Iteration  1 RMS(Cart)=  0.00013996 RMS(Int)=  0.00004493
 Iteration  2 RMS(Cart)=  0.00002283 RMS(Int)=  0.00004790
 Iteration  3 RMS(Cart)=  0.00000372 RMS(Int)=  0.00004890
 Iteration  4 RMS(Cart)=  0.00000061 RMS(Int)=  0.00004908
 Variable       Old X    -DE/DX   Delta X   Delta X   Delta X     New X
                                 (Linear)    (Quad)   (Total)
    R1        2.59147   0.00633   0.02511  -0.00415   0.02167   2.61314
    R2        2.04065   0.00028  -0.00100   0.00228   0.00127   2.04193
    R3        2.86717  -0.00041  -0.00247   0.00226  -0.00085   2.86632
    R4        4.53534  -0.00072  -0.00000   0.00000   0.00000   4.53534
    R5        2.72574  -0.00898  -0.04087   0.00165  -0.03718   2.68855
    R6        2.04245  -0.00015  -0.00064  -0.00002  -0.00066   2.04179
    R7        2.59157   0.00634   0.02515  -0.00416   0.02164   2.61321
    R8        2.04245  -0.00015  -0.00064  -0.00001  -0.00065   2.04180
    R9        2.04067   0.00027  -0.00100   0.00226   0.00126   2.04193
   R10        2.86692  -0.00035  -0.00240   0.00227  -0.00089   2.86603
   R11        4.53534  -0.00076  -0.00000   0.00000   0.00000   4.53534
   R12        2.08806  -0.00069   0.00359  -0.00706  -0.00347   2.08459
   R13        2.05816  -0.00236  -0.00367  -0.00029  -0.00112   2.05704
   R14        4.63333   0.00001   0.02112   0.01651   0.03870   4.67203
   R15        4.64227   0.00001   0.02128   0.01660   0.03859   4.68086
   R16        2.09036  -0.01062  -0.05881   0.00359  -0.05522   2.03514
   R17        2.10377  -0.01327  -0.07083  -0.00098  -0.07180   2.03197
   R18        2.69721  -0.02231  -0.11836  -0.00459  -0.12644   2.57076
   R19        2.10287  -0.01306  -0.06979  -0.00068  -0.07047   2.03239
   R20        2.09174  -0.01097  -0.06061   0.00326  -0.05735   2.03439
    A1        2.20942  -0.00041  -0.00540   0.00244  -0.00356   2.20586
    A2        1.91377  -0.00048   0.00601  -0.02127  -0.01680   1.89697
    A3        1.61313   0.00135   0.02104   0.01775   0.03847   1.65160
    A4        2.15007   0.00038  -0.00487   0.01397   0.00785   2.15791
    A5        1.73758   0.00185   0.00479   0.01048   0.01543   1.75301
    A6        1.46946  -0.00007   0.00925   0.00133   0.01067   1.48013
    A7        1.90525   0.00045  -0.00227   0.00800   0.00459   1.90984
    A8        2.20730  -0.00143   0.00140  -0.01650  -0.01477   2.19254
    A9        2.16949   0.00089   0.00028   0.00800   0.00858   2.17807
   A10        1.90531   0.00045  -0.00224   0.00801   0.00457   1.90989
   A11        2.16951   0.00089   0.00028   0.00801   0.00861   2.17812
   A12        2.20721  -0.00143   0.00138  -0.01651  -0.01477   2.19243
   A13        2.20927  -0.00040  -0.00537   0.00247  -0.00346   2.20580
   A14        1.91374  -0.00050   0.00596  -0.02128  -0.01676   1.89698
   A15        1.61120   0.00135   0.02093   0.01769   0.03833   1.64954
   A16        2.15017   0.00040  -0.00486   0.01393   0.00771   2.15788
   A17        1.73820   0.00185   0.00478   0.01052   0.01546   1.75367
   A18        1.47130  -0.00008   0.00922   0.00128   0.01059   1.48189
   A19        1.76425  -0.00111  -0.01739   0.01900   0.00053   1.76478
   A20        1.92837   0.00137   0.01384  -0.00941   0.00452   1.93289
   A21        1.97285  -0.00069  -0.00732  -0.00460  -0.01147   1.96137
   A22        1.92824   0.00137   0.01377  -0.00941   0.00444   1.93268
   A23        1.97414  -0.00063  -0.00702  -0.00443  -0.01130   1.96283
   A24        1.89396  -0.00023   0.00446   0.00827   0.01244   1.90640
   A25        1.59467   0.00002   0.00243  -0.00567  -0.00453   1.59014
   A26        1.59271  -0.00000   0.00232  -0.00577  -0.00461   1.58810
   A27        0.93484  -0.00068  -0.00601  -0.00294  -0.00853   0.92631
   A28        1.87866  -0.00719  -0.03141  -0.07321  -0.10424   1.77441
   A29        1.88834  -0.00796  -0.04165  -0.09979  -0.14051   1.74784
   A30        1.76304   0.00223   0.00928   0.00474   0.01408   1.77712
   A31        2.81341  -0.00788  -0.03744  -0.07649  -0.11345   2.69996
   A32        1.40566  -0.00470  -0.02756  -0.04701  -0.07598   1.32968
   A33        1.88901   0.00581   0.03560   0.03733   0.05136   1.94038
   A34        2.00895   0.00129   0.00190   0.04437   0.04659   2.05555
   A35        2.02368   0.00345   0.01624   0.05816   0.06949   2.09317
   A36        0.93417  -0.00065  -0.00592  -0.00289  -0.00847   0.92570
   A37        1.76235   0.00226   0.00936   0.00485   0.01428   1.77663
   A38        1.88645  -0.00793  -0.04148  -0.09979  -0.14038   1.74607
   A39        1.88199  -0.00720  -0.03163  -0.07362  -0.10503   1.77695
   A40        1.41173  -0.00468  -0.02755  -0.04698  -0.07617   1.33556
   A41        2.81616  -0.00784  -0.03753  -0.07643  -0.11385   2.70231
   A42        2.02600   0.00333   0.01541   0.05745   0.06791   2.09392
   A43        2.00644   0.00126   0.00227   0.04512   0.04832   2.05476
   A44        1.88864   0.00592   0.03607   0.03768   0.05166   1.94030
    D1        3.11951  -0.00036  -0.00391  -0.01505  -0.01857   3.10094
    D2       -0.07197  -0.00222  -0.02021  -0.02550  -0.04534  -0.11731
    D3        0.12611   0.00334   0.03451   0.02002   0.05422   0.18033
    D4       -3.06537   0.00149   0.01820   0.00957   0.02745  -3.03793
    D5       -1.35217   0.00294   0.01735   0.01252   0.03026  -1.32192
    D6        1.73953   0.00108   0.00105   0.00207   0.00348   1.74302
    D7       -0.18829  -0.00485  -0.05034  -0.03173  -0.08133  -0.26962
    D8        1.85353  -0.00330  -0.03776  -0.03649  -0.07410   1.77943
    D9       -2.30349  -0.00308  -0.02699  -0.03591  -0.06281  -2.36630
   D10        3.09544  -0.00122  -0.01343   0.00294  -0.00991   3.08553
   D11       -1.14593   0.00033  -0.00085  -0.00182  -0.00267  -1.14860
   D12        0.98024   0.00055   0.00992  -0.00124   0.00861   0.98885
   D13        1.39137  -0.00339  -0.02530  -0.01023  -0.03536   1.35601
   D14       -2.85000  -0.00184  -0.01272  -0.01500  -0.02812  -2.87812
   D15       -0.72383  -0.00162  -0.00195  -0.01442  -0.01684  -0.74067
   D16        2.25457  -0.00008   0.00499  -0.01704  -0.01204   2.24252
   D17       -0.89560  -0.00058   0.00326  -0.03461  -0.03248  -0.92808
   D18       -2.93327   0.00055   0.00191   0.01228   0.01013  -2.92313
   D19        1.21673  -0.00105  -0.00323  -0.01280  -0.01619   1.20055
   D20       -1.79905   0.00017   0.00508  -0.00824  -0.00194  -1.80098
   D21        1.33397  -0.00033   0.00335  -0.02581  -0.02237   1.31160
   D22       -0.70370   0.00080   0.00200   0.02108   0.02024  -0.68345
   D23       -2.83688  -0.00080  -0.00314  -0.00400  -0.00608  -2.84296
   D24        0.34321   0.00053   0.00122   0.00598   0.00760   0.35081
   D25       -2.80696   0.00002  -0.00051  -0.01159  -0.01283  -2.81979
   D26        1.43856   0.00115  -0.00187   0.03529   0.02978   1.46834
   D27       -0.69462  -0.00044  -0.00701   0.01021   0.00346  -0.69116
   D28        0.00026  -0.00001  -0.00012   0.00001  -0.00013   0.00014
   D29        3.09312  -0.00189  -0.01587  -0.01101  -0.02730   3.06582
   D30       -3.09276   0.00188   0.01573   0.01103   0.02719  -3.06557
   D31        0.00009  -0.00000  -0.00002   0.00002   0.00001   0.00010
   D32       -3.11941   0.00036   0.00391   0.01499   0.01858  -3.10083
   D33       -0.12653  -0.00333  -0.03433  -0.02003  -0.05403  -0.18056
   D34        1.35301  -0.00294  -0.01725  -0.01256  -0.03016   1.32284
   D35        0.07224   0.00221   0.02012   0.02542   0.04521   0.11745
   D36        3.06512  -0.00148  -0.01812  -0.00960  -0.02740   3.03772
   D37       -1.73853  -0.00109  -0.00104  -0.00213  -0.00353  -1.74206
   D38        0.18845   0.00485   0.05026   0.03173   0.08126   0.26970
   D39       -1.85347   0.00330   0.03763   0.03649   0.07396  -1.77950
   D40        2.30274   0.00304   0.02668   0.03581   0.06260   2.36534
   D41       -3.09581   0.00123   0.01351  -0.00290   0.01002  -3.08579
   D42        1.14546  -0.00032   0.00088   0.00187   0.00272   1.14818
   D43       -0.98152  -0.00058  -0.01007   0.00119  -0.00863  -0.99016
   D44       -1.38981   0.00338   0.02535   0.01034   0.03548  -1.35433
   D45        2.85146   0.00183   0.01271   0.01510   0.02819   2.87965
   D46        0.72448   0.00157   0.00177   0.01442   0.01683   0.74131
   D47       -2.25428   0.00013  -0.00482   0.01707   0.01200  -2.24228
   D48       -1.22517   0.00100   0.00277   0.01258   0.01550  -1.20967
   D49        2.92337  -0.00049  -0.00153  -0.01181  -0.00933   2.91403
   D50        0.88537   0.00052  -0.00333   0.03516   0.03350   0.91887
   D51        1.79984  -0.00012  -0.00489   0.00828   0.00189   1.80174
   D52        2.82896   0.00075   0.00270   0.00379   0.00539   2.83435
   D53        0.69431  -0.00074  -0.00160  -0.02060  -0.01944   0.67486
   D54       -1.34369   0.00027  -0.00340   0.02636   0.02339  -1.32030
   D55       -0.34276  -0.00049  -0.00107  -0.00593  -0.00756  -0.35032
   D56        0.68635   0.00037   0.00653  -0.01041  -0.00406   0.68229
   D57       -1.44830  -0.00111   0.00222  -0.03480  -0.02890  -1.47720
   D58        2.79689  -0.00010   0.00043   0.01216   0.01394   2.81083
   D59        0.70117   0.00140  -0.00110   0.01076   0.00967   0.71084
   D60        1.29142  -0.00363  -0.03080   0.00748  -0.02359   1.26783
   D61       -1.29053   0.00368   0.03103  -0.00743   0.02362  -1.26691
   D62       -0.70028  -0.00135   0.00133  -0.01072  -0.00964  -0.70992
   D63        2.84656   0.00252   0.01490   0.00161   0.01663   2.86319
   D64       -2.84637  -0.00251  -0.01480  -0.00168  -0.01663  -2.86301
   D65       -0.48534  -0.00130  -0.00283  -0.00931  -0.01188  -0.49722
   D66       -0.51069  -0.00226  -0.00578  -0.05617  -0.05304  -0.56373
   D67       -2.59890   0.00487   0.02497   0.08307   0.10659  -2.49230
   D68        0.48471   0.00126   0.00260   0.00924   0.01180   0.49651
   D69        2.59023  -0.00491  -0.02507  -0.08298  -0.10620   2.48402
   D70        0.47894   0.00254   0.00843   0.06427   0.06259   0.54153
   D71        0.00393   0.00002   0.00018   0.00012   0.00027   0.00420
   D72        2.03813  -0.00655  -0.03651  -0.09051  -0.13102   1.90711
   D73       -2.01613   0.00663   0.03101   0.06474   0.09623  -1.91990
   D74        2.02156  -0.00660  -0.03063  -0.06448  -0.09567   1.92588
   D75       -2.22742  -0.01316  -0.06731  -0.15511  -0.22697  -2.45439
   D76        0.00150   0.00001   0.00021   0.00014   0.00028   0.00179
   D77       -2.03194   0.00658   0.03671   0.09039   0.13103  -1.90091
   D78        0.00227   0.00001   0.00002  -0.00024  -0.00027   0.00200
   D79        2.23119   0.01319   0.06754   0.15501   0.22698   2.45818
         Item               Value     Threshold  Converged?
 Maximum Force            0.022409     0.000450     NO 
 RMS     Force            0.004292     0.000300     NO 
 Maximum Displacement     0.181357     0.001800     NO 
 RMS     Displacement     0.034448     0.001200     NO 
 Predicted change in Energy=-1.910684D-02
 GradGradGradGradGradGradGradGradGradGradGradGradGradGradGradGradGradGrad

                          Input orientation:                          
 ---------------------------------------------------------------------
 Center     Atomic      Atomic             Coordinates (Angstroms)
 Number     Number       Type             X           Y           Z
 ---------------------------------------------------------------------
      1          6           0       -0.704808    1.172650   -0.321447
      2          6           0       -1.134885    0.707149    0.907586
      3          6           0       -1.134651   -0.715557    0.901190
      4          6           0       -0.704250   -1.169924   -0.331927
      5          1           0       -0.634299    2.206908   -0.626259
      6          1           0       -1.363317    1.319797    1.767758
      7          1           0       -1.362960   -1.336036    1.755767
      8          1           0       -0.633490   -2.201408   -0.645948
      9          6           0       -0.641640    0.005578   -1.288202
     10          1           0       -1.515396    0.008215   -1.961556
     11          1           0        0.269711    0.009382   -1.883470
     12          6           0        1.608881    0.679937    0.083610
     13          1           0        1.777350    1.181430    1.021665
     14          1           0        2.062121    1.216500   -0.730566
     15          6           0        1.608344   -0.680451    0.083191
     16          1           0        2.062690   -1.217683   -0.730225
     17          1           0        1.774750   -1.181717    1.021280
 ---------------------------------------------------------------------
                    Distance matrix (angstroms):
                    1          2          3          4          5
     1  C    0.000000
     2  C    1.382816   0.000000
     3  C    2.290182   1.422720   0.000000
     4  C    2.342597   2.290249   1.382849   0.000000
     5  H    1.080542   2.202849   3.335304   3.390357   0.000000
     6  H    2.195464   1.080470   2.223937   3.322914   2.655136
     7  H    3.322873   2.223968   1.080472   2.195440   4.330987
     8  H    3.390377   3.335352   2.202851   1.080544   4.408360
     9  C    1.516793   2.357324   2.357230   1.516637   2.298712
    10  H    2.168621   2.977460   2.977268   2.168331   2.719117
    11  H    2.177796   3.201524   3.201890   2.178680   2.688295
    12  C    2.400000   2.864949   3.184778   2.990858   2.804891
    13  H    2.822258   2.952808   3.477474   3.676876   3.095692
    14  H    2.797356   3.628200   4.076129   3.675152   2.874451
    15  C    2.991386   3.182824   2.862583   2.400000   3.724192
    16  H    3.679651   4.075768   3.624450   2.795868   4.360319
    17  H    3.673441   3.470838   2.948956   2.824314   4.472212
                    6          7          8          9         10
     6  H    0.000000
     7  H    2.655861   0.000000
     8  H    4.330994   2.655039   0.000000
     9  C    3.403950   3.403818   2.298553   0.000000
    10  H    3.956154   3.955848   2.718643   1.103115   0.000000
    11  H    4.208970   4.209490   2.689763   1.088540   1.786814
    12  C    3.475592   3.961325   3.723255   2.720564   3.794077
    13  H    3.231035   4.091221   4.476235   3.545367   4.595456
    14  H    4.240981   4.942517   4.353800   3.014567   3.971639
    15  C    3.958475   3.472168   2.805490   2.722826   3.796446
    16  H    4.941280   4.234293   2.871272   3.020116   3.977650
    17  H    4.081943   3.226222   3.101457   3.547156   4.597641
                   11         12         13         14         15
    11  H    0.000000
    12  C    2.472331   0.000000
    13  H    3.476562   1.076952   0.000000
    14  H    2.449297   1.075272   1.775567   0.000000
    15  C    2.477007   1.360388   2.091865   2.113419   0.000000
    16  H    2.459763   2.114055   2.984339   2.434183   1.075497
    17  H    3.481584   2.091050   2.363148   2.983788   1.076554
                   16         17
    16  H    0.000000
    17  H    1.775380   0.000000
 Stoichiometry    C7H10
 Framework group  C1[X(C7H10)]
 Deg. of freedom    45
 Full point group                 C1      NOp   1
 Largest Abelian subgroup         C1      NOp   1
 Largest concise Abelian subgroup C1      NOp   1
                         Standard orientation:                         
 ---------------------------------------------------------------------
 Center     Atomic      Atomic             Coordinates (Angstroms)
 Number     Number       Type             X           Y           Z
 ---------------------------------------------------------------------
      1          6           0       -0.588426   -1.172862    0.369663
      2          6           0       -1.144018   -0.708407   -0.808378
      3          6           0       -1.144189    0.714302   -0.802801
      4          6           0       -0.588541    1.169718    0.378776
      5          1           0       -0.485903   -2.206885    0.666069
      6          1           0       -1.459981   -1.321738   -1.639887
      7          1           0       -1.460375    1.334102   -1.629417
      8          1           0       -0.486364    2.201442    0.683212
      9          6           0       -0.426194   -0.005158    1.324026
     10          1           0       -1.225389   -0.007988    2.084383
     11          1           0        0.541989   -0.007970    1.821551
     12          6           0        1.670397   -0.678798   -0.273468
     13          1           0        1.741030   -1.180746   -1.223670
     14          1           0        2.206047   -1.214551    0.489588
     15          6           0        1.668885    0.681589   -0.273723
[...]
 ! D30   D(6,2,3,4)           -174.1829         -DE/DX =   -0.0001              !
 ! D31   D(6,2,3,7)             -0.0003         -DE/DX =    0.0                 !
 ! D32   D(2,3,4,8)           -175.623          -DE/DX =    0.0001              !
 ! D33   D(2,3,4,9)            -13.6104         -DE/DX =    0.0003              !
 ! D34   D(2,3,4,15)            74.8696         -DE/DX =   -0.0001              !
 ! D35   D(7,3,4,8)             10.2648         -DE/DX =    0.0                 !
 ! D36   D(7,3,4,9)            172.2773         -DE/DX =    0.0002              !
 ! D37   D(7,3,4,15)           -99.2427         -DE/DX =   -0.0001              !
 ! D38   D(3,4,9,1)             20.4193         -DE/DX =   -0.0003              !
 ! D39   D(3,4,9,10)           -91.9015         -DE/DX =    0.0                 !
 ! D40   D(3,4,9,11)           146.4758         -DE/DX =   -0.0002              !
 ! D41   D(8,4,9,1)           -176.9864         -DE/DX =   -0.0002              !
 ! D42   D(8,4,9,10)            70.6927         -DE/DX =    0.0001              !
 ! D43   D(8,4,9,11)           -50.93           -DE/DX =    0.0                 !
 ! D44   D(15,4,9,1)           -75.5183         -DE/DX =   -0.0007              !
 ! D45   D(15,4,9,10)          172.1608         -DE/DX =   -0.0005              !
 ! D46   D(15,4,9,11)           50.5382         -DE/DX =   -0.0006              !
 ! D47   D(3,4,15,11)         -128.8206         -DE/DX =    0.0002              !
 ! D48   D(3,4,15,12)          -68.6282         -DE/DX =    0.0001              !
 ! D49   D(3,4,15,16)          169.6346         -DE/DX =    0.0002              !
 ! D50   D(3,4,15,17)           53.8654         -DE/DX =    0.0002              !
 ! D51   D(8,4,15,11)          102.2498         -DE/DX =    0.0                 !
 ! D52   D(8,4,15,12)          162.4423         -DE/DX =   -0.0001              !
 ! D53   D(8,4,15,16)           40.705          -DE/DX =    0.0                 !
 ! D54   D(8,4,15,17)          -75.0642         -DE/DX =    0.0                 !
 ! D55   D(9,4,15,11)          -21.1378         -DE/DX =    0.0                 !
 ! D56   D(9,4,15,12)           39.0546         -DE/DX =   -0.0001              !
 ! D57   D(9,4,15,16)          -82.6826         -DE/DX =    0.0                 !
 ! D58   D(9,4,15,17)          161.5481         -DE/DX =    0.0                 !
 ! D59   D(1,9,11,12)           44.2061         -DE/DX =    0.0004              !
 ! D60   D(1,9,11,15)           73.8325         -DE/DX =    0.0001              !
 ! D61   D(4,9,11,12)          -73.8325         -DE/DX =   -0.0001              !
 ! D62   D(4,9,11,15)          -44.2061         -DE/DX =   -0.0004              !
 ! D63   D(10,9,11,12)         165.1869         -DE/DX =    0.0002              !
 ! D64   D(10,9,11,15)        -165.1867         -DE/DX =   -0.0002              !
 ! D65   D(9,11,12,1)          -30.4361         -DE/DX =    0.0003              !
 ! D66   D(9,11,12,13)         -34.8701         -DE/DX =    0.0002              !
 ! D67   D(9,11,12,14)        -136.888          -DE/DX =    0.0                 !
 ! D68   D(9,11,15,4)           30.436          -DE/DX =   -0.0003              !
 ! D69   D(9,11,15,16)         136.8945         -DE/DX =    0.0                 !
 ! D70   D(9,11,15,17)          34.8812         -DE/DX =   -0.0002              !
 ! D71   D(1,12,15,4)           -0.0035         -DE/DX =    0.0                 !
 ! D72   D(1,12,15,16)          94.2876         -DE/DX =   -0.0001              !
 ! D73   D(1,12,15,17)         -98.8637         -DE/DX =   -0.0001              !
 ! D74   D(13,12,15,4)          98.8607         -DE/DX =    0.0001              !
 ! D75   D(13,12,15,16)       -166.8482         -DE/DX =    0.0                 !
 ! D76   D(13,12,15,17)          0.0005         -DE/DX =    0.0                 !
 ! D77   D(14,12,15,4)         -94.2926         -DE/DX =    0.0001              !
 ! D78   D(14,12,15,16)         -0.0015         -DE/DX =    0.0                 !
 ! D79   D(14,12,15,17)        166.8472         -DE/DX =    0.0                 !
 --------------------------------------------------------------------------------
 GradGradGradGradGradGradGradGradGradGradGradGradGradGradGradGradGradGrad

                          Input orientation:                          
 ---------------------------------------------------------------------
 Center     Atomic      Atomic             Coordinates (Angstroms)
 Number     Number       Type             X           Y           Z
 ---------------------------------------------------------------------
      1          6           0       -0.617923    1.173870   -0.312711
      2          6           0       -1.112083    0.715768    0.886622
      3          6           0       -1.111952   -0.721913    0.881666
      4          6           0       -0.617719   -1.171641   -0.320802
      5          1           0       -0.560754    2.207878   -0.623686
      6          1           0       -1.365259    1.328992    1.740491
      7          1           0       -1.365012   -1.341054    1.731288
      8          1           0       -0.560355   -2.203468   -0.638902
      9          6           0       -0.587685    0.004457   -1.284673
     10          1           0       -1.546395    0.006270   -1.834076
     11          1           0        0.226633    0.007014   -2.006936
     12          6           0        1.688912    0.677965    0.126141
     13          1           0        1.657442    1.238808    1.051306
     14          1           0        1.929678    1.249161   -0.764245
     15          6           0        1.689045   -0.678375    0.121382
     16          1           0        1.929900   -1.243251   -0.773002
     17          1           0        1.657678   -1.245711    1.042585
 ---------------------------------------------------------------------
                    Distance matrix (angstroms):
                    1          2          3          4          5
     1  C    0.000000
     2  C    1.375665   0.000000
     3  C    2.294471   1.437689   0.000000
     4  C    2.345526   2.294468   1.375664   0.000000
     5  H    1.081270   2.193487   3.339697   3.393543   0.000000
     6  H    2.190483   1.081311   2.237846   3.325795   2.647451
     7  H    3.325797   2.237845   1.081311   2.190484   4.334472
     8  H    3.393542   3.339696   2.193489   1.081270   4.411372
     9  C    1.520905   2.344244   2.344247   1.520907   2.300585
    10  H    2.130704   2.845033   2.845038   2.130707   2.698816
    11  H    2.223787   3.266064   3.266063   2.223782   2.716093
    12  C    2.400000   2.902643   3.221074   2.990209   2.822033
    13  H    2.653685   2.823289   3.397462   3.587382   2.943652
    14  H    2.588401   3.501739   3.980662   3.542056   2.672292
    15  C    2.990209   3.221109   2.902674   2.400000   3.734591
    16  H    3.541998   3.980675   3.501798   2.588432   4.258632
    17  H    3.587417   3.397543   2.823315   2.653628   4.430030
                    6          7          8          9         10
     6  H    0.000000
     7  H    2.670062   0.000000
     8  H    4.334473   2.647457   0.000000
     9  C    3.392732   3.392736   2.300587   0.000000
    10  H    3.815747   3.815757   2.698825   1.104976   0.000000
    11  H    4.280766   4.280764   2.716081   1.088478   1.781434
    12  C    3.515384   3.997423   3.734588   2.761685   3.841983
    13  H    3.101586   4.031538   4.429977   3.467134   4.484322
    14  H    4.139648   4.877692   4.258711   2.856089   3.843487
    15  C    3.997475   3.515424   2.822011   2.761657   3.841956
    16  H    4.877721   4.139745   2.672335   2.856014   3.843411
    17  H    4.031664   3.101621   2.943530   3.467088   4.484274
                   11         12         13         14         15
    11  H    0.000000
    12  C    2.671789   0.000000
    13  H    3.594076   1.082343   0.000000
    14  H    2.446951   1.084906   1.835878   0.000000
    15  C    2.671731   1.356347   2.131044   2.134861   0.000000
    16  H    2.446809   2.134855   3.092403   2.492428   1.084906
    17  H    3.593993   2.131049   2.484534   3.092411   1.082344
                   16         17
    16  H    0.000000
    17  H    1.835884   0.000000
 Stoichiometry    C7H10
 Framework group  C1[X(C7H10)]
 Deg. of freedom    45
 Full point group                 C1      NOp   1
 Largest Abelian subgroup         C1      NOp   1
 Largest concise Abelian subgroup C1      NOp   1
                         Standard orientation:                         
 ---------------------------------------------------------------------
 Center     Atomic      Atomic             Coordinates (Angstroms)
 Number     Number       Type             X           Y           Z
 ---------------------------------------------------------------------
      1          6           0       -0.547296   -1.172744    0.361033
      2          6           0       -1.153362   -0.718872   -0.787504
      3          6           0       -1.153348    0.718817   -0.787572
      4          6           0       -0.547282    1.172782    0.360928
      5          1           0       -0.460417   -2.205654    0.668755
      6          1           0       -1.486273   -1.335094   -1.611320
      7          1           0       -1.486242    1.334968   -1.611449
      8          1           0       -0.460375    2.205718    0.668556
      9          6           0       -0.425321    0.000060    1.321660
     10          1           0       -1.327492    0.000093    1.959673
     11          1           0        0.453939    0.000089    1.963287
     12          6           0        1.707202   -0.678197   -0.296738
     13          1           0        1.588199   -1.242272   -1.212775
     14          1           0        2.031711   -1.246261    0.568721
     15          6           0        1.707233    0.678150   -0.296720
     16          1           0        2.031748    1.246166    0.568767
     17          1           0        1.588248    1.242262   -1.212738
 ---------------------------------------------------------------------
 Rotational constants (GHZ):           3.7528805           2.6595093           2.4350941

 **********************************************************************

            Population analysis using the SCF Density.

 **********************************************************************

 Orbital symmetries:
       Occupied  (A) (A) (A) (A) (A) (A) (A) (A) (A) (A) (A) (A)
                 (A) (A) (A) (A) (A) (A) (A) (A) (A) (A) (A) (A)
                 (A) (A)
       Virtual   (A) (A) (A) (A) (A) (A) (A) (A) (A) (A) (A) (A)
                 (A) (A) (A) (A) (A) (A) (A) (A) (A) (A) (A) (A)
                 (A) (A) (A) (A) (A) (A) (A) (A) (A) (A) (A) (A)
                 (A) (A) (A) (A) (A) (A) (A) (A) (A) (A) (A) (A)
                 (A) (A) (A) (A) (A) (A) (A) (A) (A)
 The electronic state is 1-A.
 Alpha  occ. eigenvalues --  -10.12529 -10.12482 -10.12285 -10.11340 -10.11219
 Alpha  occ. eigenvalues --  -10.10105 -10.09999  -0.85770  -0.73896  -0.70057
 Alpha  occ. eigenvalues --   -0.69933  -0.56404  -0.55164  -0.52269  -0.51351
 Alpha  occ. eigenvalues --   -0.45599  -0.43118  -0.40257  -0.39329  -0.37422
 Alpha  occ. eigenvalues --   -0.36392  -0.35459  -0.33557  -0.30391  -0.22162
 Alpha  occ. eigenvalues --   -0.21494
 Alpha virt. eigenvalues --   -0.00363   0.03772   0.11560   0.12277   0.15508
 Alpha virt. eigenvalues --    0.16574   0.17423   0.18253   0.19192   0.19697
 Alpha virt. eigenvalues --    0.20764   0.22665   0.23061   0.26345   0.28723
 Alpha virt. eigenvalues --    0.36571   0.37047   0.41191   0.46199   0.65159
 Alpha virt. eigenvalues --    0.67392   0.71542   0.72837   0.73640   0.74658
 Alpha virt. eigenvalues --    0.76512   0.77992   0.78119   0.78903   0.82671
 Alpha virt. eigenvalues --    0.87527   0.88257   0.89477   0.96074   0.96933
 Alpha virt. eigenvalues --    0.99484   1.00002   1.01891   1.02731   1.04080
 Alpha virt. eigenvalues --    1.06146   1.08686   1.10902   1.12470   1.15096
 Alpha virt. eigenvalues --    1.17339   1.32526   1.35463   1.37328   1.40703
 Alpha virt. eigenvalues --    1.42883   1.61349   1.70231   1.98580   2.06481
 Alpha virt. eigenvalues --    2.13003   2.50446
          Condensed to atoms (all electrons):
               1          2          3          4          5          6
     1  C    5.325583   0.484456  -0.109796  -0.130007   0.390949  -0.037952
     2  C    0.484456   5.185094   0.426360  -0.109796  -0.036745   0.390176
     3  C   -0.109796   0.426360   5.185092   0.484457   0.004305  -0.034086
     4  C   -0.130007  -0.109796   0.484457   5.325582   0.003301   0.003935
     5  H    0.390949  -0.036745   0.004305   0.003301   0.502117  -0.002149
     6  H   -0.037952   0.390176  -0.034086   0.003935  -0.002149   0.503780
     7  H    0.003935  -0.034086   0.390176  -0.037951  -0.000051  -0.001349
     8  H    0.003301   0.004305  -0.036744   0.390949  -0.000039  -0.000051
     9  C    0.326760  -0.125471  -0.125470   0.326762  -0.032307   0.004244
    10  H   -0.038865   0.000971   0.000972  -0.038865   0.000108  -0.000133
    11  H   -0.032474   0.003874   0.003874  -0.032475  -0.000952  -0.000055
    12  C    0.014724  -0.012760  -0.012369  -0.013715  -0.004807   0.000103
    13  H   -0.003269  -0.001191   0.000148   0.000445  -0.000030   0.000195
    14  H   -0.003117   0.000062   0.000123   0.000560   0.000125  -0.000004
    15  C   -0.013715  -0.012368  -0.012759   0.014723   0.000080  -0.000111
    16  H    0.000560   0.000123   0.000062  -0.003116  -0.000006  -0.000000
    17  H    0.000445   0.000148  -0.001191  -0.003269  -0.000004  -0.000002
               7          8          9         10         11         12
     1  C    0.003935   0.003301   0.326760  -0.038865  -0.032474   0.014724
     2  C   -0.034086   0.004305  -0.125471   0.000971   0.003874  -0.012760
     3  C    0.390176  -0.036744  -0.125470   0.000972   0.003874  -0.012369
     4  C   -0.037951   0.390949   0.326762  -0.038865  -0.032475  -0.013715
     5  H   -0.000051  -0.000039  -0.032307   0.000108  -0.000952  -0.004807
     6  H   -0.001349  -0.000051   0.004244  -0.000133  -0.000055   0.000103
     7  H    0.503780  -0.002149   0.004244  -0.000133  -0.000055  -0.000111
     8  H   -0.002149   0.502116  -0.032307   0.000108  -0.000952   0.000080
     9  C    0.004244  -0.032307   5.409236   0.340052   0.367790  -0.023230
    10  H   -0.000133   0.000108   0.340052   0.528854  -0.024253   0.001770
    11  H   -0.000055  -0.000952   0.367790  -0.024253   0.516670  -0.001724
    12  C   -0.000111   0.000080  -0.023230   0.001770  -0.001724   5.228669
    13  H   -0.000002  -0.000004   0.000413  -0.000010   0.000057   0.385220
    14  H   -0.000000  -0.000006  -0.000991   0.000009   0.001174   0.380649
    15  C    0.000103  -0.004807  -0.023233   0.001770  -0.001724   0.524248
    16  H   -0.000004   0.000125  -0.000992   0.000009   0.001175  -0.048903
    17  H    0.000195  -0.000030   0.000413  -0.000010   0.000057  -0.044886
              13         14         15         16         17
     1  C   -0.003269  -0.003117  -0.013715   0.000560   0.000445
     2  C   -0.001191   0.000062  -0.012368   0.000123   0.000148
     3  C    0.000148   0.000123  -0.012759   0.000062  -0.001191
     4  C    0.000445   0.000560   0.014723  -0.003116  -0.003269
     5  H   -0.000030   0.000125   0.000080  -0.000006  -0.000004
     6  H    0.000195  -0.000004  -0.000111  -0.000000  -0.000002
     7  H   -0.000002  -0.000000   0.000103  -0.000004   0.000195
     8  H   -0.000004  -0.000006  -0.004807   0.000125  -0.000030
     9  C    0.000413  -0.000991  -0.023233  -0.000992   0.000413
    10  H   -0.000010   0.000009   0.001770   0.000009  -0.000010
    11  H    0.000057   0.001174  -0.001724   0.001175   0.000057
    12  C    0.385220   0.380649   0.524248  -0.048903  -0.044886
    13  H    0.511416  -0.032466  -0.044887   0.003237  -0.004863
    14  H   -0.032466   0.527992  -0.048902  -0.005068   0.003237
    15  C   -0.044887  -0.048902   5.228676   0.380649   0.385221
    16  H    0.003237  -0.005068   0.380649   0.527993  -0.032466
    17  H   -0.004863   0.003237   0.385221  -0.032466   0.511414
 Mulliken charges:
               1
     1  C   -0.181521
     2  C   -0.163153
     3  C   -0.163153
     4  C   -0.181521
     5  H    0.176105
     6  H    0.173457
     7  H    0.173456
     8  H    0.176105
     9  C   -0.415914
    10  H    0.227646
    11  H    0.199991
    12  C   -0.372959
    13  H    0.185590
    14  H    0.176622
    15  C   -0.372964
    16  H    0.176620
    17  H    0.185591
 Sum of Mulliken charges =   0.00000
 Mulliken charges with hydrogens summed into heavy atoms:
               1
     1  C   -0.005416
     2  C    0.010304
     3  C    0.010304
     4  C   -0.005415
     9  C    0.011723
    12  C   -0.010747
    15  C   -0.010753
 Electronic spatial extent (au):  <R**2>=            671.8103
 Charge=              0.0000 electrons
 Dipole moment (field-independent basis, Debye):
    X=             -0.3423    Y=              0.0000    Z=              0.4929  Tot=              0.6001
 Quadrupole moment (field-independent basis, Debye-Ang):
   XX=            -47.7334   YY=            -40.4117   ZZ=            -40.4451
   XY=              0.0001   XZ=              1.8322   YZ=             -0.0000
 Traceless Quadrupole moment (field-independent basis, Debye-Ang):
   XX=             -4.8700   YY=              2.4517   ZZ=              2.4183
   XY=              0.0001   XZ=              1.8322   YZ=             -0.0000
 Octapole moment (field-independent basis, Debye-Ang**2):
  XXX=             -3.5115  YYY=             -0.0001  ZZZ=             -0.8253  XYY=              0.4553
  XXY=             -0.0002  XXZ=              1.7252  XZZ=             -2.0266  YZZ=              0.0000
  YYZ=             -0.1556  XYZ=             -0.0001
 Hexadecapole moment (field-independent basis, Debye-Ang**3):
 XXXX=           -469.8939 YYYY=           -251.8082 ZZZZ=           -214.1408 XXXY=              0.0005
 XXXZ=             11.0002 YYYX=              0.0007 YYYZ=             -0.0006 ZZZX=              4.6789
 ZZZY=             -0.0002 XXYY=           -115.3210 XXZZ=            -99.4476 YYZZ=            -75.6231
 XXYZ=              0.0004 YYXZ=              3.8893 ZZXY=              0.0000
 N-N= 2.913934913145D+02 E-N=-1.210194857909D+03  KE= 2.688164731789D+02
 1\1\GINC-TACHAS\FOpt\RB3LYP\3-21G\C7H10\LEOS\20-Oct-2019\0\\# opt=modr
 edundant b3lyp/3-21g geom=connectivity\\Title Card Required\\0,1\C,-0.
 6179225977,1.1738704317,-0.3127114316\C,-1.1120827307,0.7157680521,0.8
 866224688\C,-1.1119523451,-0.7219125861,0.8816660472\C,-0.6177193755,-
 1.1716414704,-0.320802073\H,-0.5607539099,2.2078775468,-0.6236857095\H
 ,-1.365259285,1.3289920756,1.7404908453\H,-1.3650122187,-1.3410543876,
 1.7312879454\H,-0.5603553919,-2.2034677707,-0.6389021192\C,-0.58768467
 15,0.0044570076,-1.2846729427\H,-1.5463945673,0.0062703382,-1.83407563
 4\H,0.226633056,0.0070136634,-2.006936443\C,1.6889123281,0.6779645581,
 0.1261412487\H,1.657442271,1.2388082644,1.0513060072\H,1.9296775677,1.
 2491610179,-0.7642454378\C,1.689045113,-0.6783745248,0.1213819265\H,1.
 9299003367,-1.2432513417,-0.7730024674\H,1.6576775509,-1.2457108845,1.
 0425849792\\Version=ES64L-G16RevB.01\State=1-A\HF=-271.1797024\RMSD=6.
 571e-09\RMSF=1.865e-03\Dipole=-0.1524866,0.0006162,-0.1802407\Quadrupo
 le=-3.8294886,1.8227605,2.0067281,0.0023488,-0.8250689,-0.0007172\PG=C
 01 [X(C7H10)]\\@


 LEARN FROM YESTERDAY,
 LIVE FOR TODAY,
 LOOK TO TOMORROW,
 REST THIS AFTERNOON.

           -- SNOOPY
 Job cpu time:       0 days  0 hours  4 minutes 41.8 seconds.
 Elapsed time:       0 days  0 hours  2 minutes 21.6 seconds.
 File lengths (MBytes):  RWF=     10 Int=      0 D2E=      0 Chk=      2 Scr=      1
 Normal termination of Gaussian 16 at Sun Oct 20 19:23:45 2019.
