 Entering Gaussian System, Link 0=g16
 Input=/home/leos/jsmolpage/PDB/Ciclo/C2.5.com
 Output=/home/leos/jsmolpage/PDB/Ciclo/C2.5.log
 Initial command:
 /opt/g16/l1.exe "/tmp/Gau-6912.inp" -scrdir="/tmp/"
 Entering Link 1 = /opt/g16/l1.exe PID=      6915.
  
 Copyright (c) 1988-2017, Gaussian, Inc.  All Rights Reserved.
  
 This is part of the Gaussian(R) 16 program.  It is based on
 the Gaussian(R) 09 system (copyright 2009, Gaussian, Inc.),
 the Gaussian(R) 03 system (copyright 2003, Gaussian, Inc.),
 the Gaussian(R) 98 system (copyright 1998, Gaussian, Inc.),
 the Gaussian(R) 94 system (copyright 1995, Gaussian, Inc.),
 the Gaussian 92(TM) system (copyright 1992, Gaussian, Inc.),
 the Gaussian 90(TM) system (copyright 1990, Gaussian, Inc.),
 the Gaussian 88(TM) system (copyright 1988, Gaussian, Inc.),
 the Gaussian 86(TM) system (copyright 1986, Carnegie Mellon
 University), and the Gaussian 82(TM) system (copyright 1983,
 Carnegie Mellon University). Gaussian is a federally registered
 trademark of Gaussian, Inc.
  
 This software contains proprietary and confidential information,
 including trade secrets, belonging to Gaussian, Inc.
  
 This software is provided under written license and may be
 used, copied, transmitted, or stored only in accord with that
 written license.
  
 The following legend is applicable only to US Government
 contracts under FAR:
  
                    RESTRICTED RIGHTS LEGEND
  
 Use, reproduction and disclosure by the US Government is
 subject to restrictions as set forth in subparagraphs (a)
 and (c) of the Commercial Computer Software - Restricted
 Rights clause in FAR 52.227-19.
  
 Gaussian, Inc.
 340 Quinnipiac St., Bldg. 40, Wallingford CT 06492
  
  
 ---------------------------------------------------------------
 Warning -- This program may not be used in any manner that
 competes with the business of Gaussian, Inc. or will provide
 assistance to any competitor of Gaussian, Inc.  The licensee
 of this program is prohibited from giving any competitor of
 Gaussian, Inc. access to this program.  By using this program,
 the user acknowledges that Gaussian, Inc. is engaged in the
 business of creating and licensing software in the field of
 computational chemistry and represents and warrants to the
 licensee that it is not a competitor of Gaussian, Inc. and that
 it will not use this program in any manner prohibited above.
 ---------------------------------------------------------------
  

 Cite this work as:
 Gaussian 16, Revision B.01,
 M. J. Frisch, G. W. Trucks, H. B. Schlegel, G. E. Scuseria, 
 M. A. Robb, J. R. Cheeseman, G. Scalmani, V. Barone, 
 G. A. Petersson, H. Nakatsuji, X. Li, M. Caricato, A. V. Marenich, 
 J. Bloino, B. G. Janesko, R. Gomperts, B. Mennucci, H. P. Hratchian, 
 J. V. Ortiz, A. F. Izmaylov, J. L. Sonnenberg, D. Williams-Young, 
 F. Ding, F. Lipparini, F. Egidi, J. Goings, B. Peng, A. Petrone, 
 T. Henderson, D. Ranasinghe, V. G. Zakrzewski, J. Gao, N. Rega, 
 G. Zheng, W. Liang, M. Hada, M. Ehara, K. Toyota, R. Fukuda, 
 J. Hasegawa, M. Ishida, T. Nakajima, Y. Honda, O. Kitao, H. Nakai, 
 T. Vreven, K. Throssell, J. A. Montgomery, Jr., J. E. Peralta, 
 F. Ogliaro, M. J. Bearpark, J. J. Heyd, E. N. Brothers, K. N. Kudin, 
 V. N. Staroverov, T. A. Keith, R. Kobayashi, J. Normand, 
 K. Raghavachari, A. P. Rendell, J. C. Burant, S. S. Iyengar, 
 J. Tomasi, M. Cossi, J. M. Millam, M. Klene, C. Adamo, R. Cammi, 
 J. W. Ochterski, R. L. Martin, K. Morokuma, O. Farkas, 
 J. B. Foresman, and D. J. Fox, Gaussian, Inc., Wallingford CT, 2016.
 
 ******************************************
 Gaussian 16:  ES64L-G16RevB.01 20-Dec-2017
                20-Oct-2019 
 ******************************************
 %nprocshared=2
 Will use up to    2 processors via shared memory.
 %mem=6GB
 %chk=C3.chk
 ------------------------------------------------
 # opt=modredundant b3lyp/3-21g geom=connectivity
 ------------------------------------------------
 1/18=120,19=15,26=3,38=1,57=2/1,3;
 2/9=110,12=2,17=6,18=5,40=1/2;
 3/5=5,11=2,25=1,30=1,71=1,74=-5/1,2,3;
 4//1;
 5/5=2,38=5/2;
 6/7=2,8=2,9=2,10=2,28=1/1;
 7//1,2,3,16;
 1/18=20,19=15,26=3/3(2);
 2/9=110/2;
 99//99;
 2/9=110/2;
 3/5=5,11=2,25=1,30=1,71=1,74=-5/1,2,3;
 4/5=5,16=3,69=1/1;
 5/5=2,38=5/2;
 7//1,2,3,16;
 1/18=20,19=15,26=3/3(-5);
 2/9=110/2;
 6/7=2,8=2,9=2,10=2,19=2,28=1/1;
 99/9=1/99;
 -------------------
 Title Card Required
 -------------------
 Symbolic Z-matrix:
 Charge =  0 Multiplicity = 1
 C                    -0.79369   1.18537  -0.33569 
 C                    -1.11924   0.73143   0.89728 
 C                    -1.11909  -0.73982   0.89047 
 C                    -0.79293  -1.18231  -0.34652 
 H                    -0.72426   2.21635  -0.65178 
 H                    -1.32329   1.33641   1.76992 
 H                    -1.32313  -1.35292   1.75743 
 H                    -0.7233   -2.21038  -0.67191 
 C                    -0.66368   0.00577  -1.28383 
 H                    -1.50946   0.00868  -1.99091 
 H                     0.26287   0.00925  -1.8612 
 C                     1.62703   0.73728   0.09941 
 H                     1.84769   1.23853   1.0734 
 H                     2.2045    1.24206  -0.73138 
 C                     1.62669  -0.73794   0.0984 
 H                     2.20406  -1.24443  -0.73004 
 H                     1.84698  -1.23871   1.0746 
 
 Add virtual bond connecting atoms C12        and C1         Dist= 4.72D+00.
 Add virtual bond connecting atoms C12        and H11        Dist= 4.72D+00.
 Add virtual bond connecting atoms H14        and H11        Dist= 4.84D+00.
 Add virtual bond connecting atoms C15        and C4         Dist= 4.72D+00.
 Add virtual bond connecting atoms C15        and H11        Dist= 4.73D+00.
 The following ModRedundant input section has been read:
 B       4      15 F                                                           
 B       1      12 F                                                           
 

 GradGradGradGradGradGradGradGradGradGradGradGradGradGradGradGradGradGrad
 Berny optimization.
 Initialization pass.
                           ----------------------------
                           !    Initial Parameters    !
                           ! (Angstroms and Degrees)  !
 --------------------------                            --------------------------
 ! Name  Definition              Value          Derivative Info.                !
 --------------------------------------------------------------------------------
 ! R1    R(1,2)                  1.3536         estimate D2E/DX2                !
 ! R2    R(1,5)                  1.0806         estimate D2E/DX2                !
 ! R3    R(1,9)                  1.519          estimate D2E/DX2                !
 ! R4    R(1,12)                 2.5            Frozen                          !
 ! R5    R(2,3)                  1.4713         estimate D2E/DX2                !
 ! R6    R(2,6)                  1.0813         estimate D2E/DX2                !
 ! R7    R(3,4)                  1.3536         estimate D2E/DX2                !
 ! R8    R(3,7)                  1.0813         estimate D2E/DX2                !
 ! R9    R(4,8)                  1.0806         estimate D2E/DX2                !
 ! R10   R(4,9)                  1.5188         estimate D2E/DX2                !
 ! R11   R(4,15)                 2.5            Frozen                          !
 ! R12   R(9,10)                 1.1024         estimate D2E/DX2                !
 ! R13   R(9,11)                 1.0917         estimate D2E/DX2                !
 ! R14   R(11,12)                2.497          estimate D2E/DX2                !
 ! R15   R(11,14)                2.5625         estimate D2E/DX2                !
 ! R16   R(11,15)                2.5017         estimate D2E/DX2                !
 ! R17   R(12,13)                1.1174         estimate D2E/DX2                !
 ! R18   R(12,14)                1.1307         estimate D2E/DX2                !
 ! R19   R(12,15)                1.4752         estimate D2E/DX2                !
 ! R20   R(15,16)                1.1297         estimate D2E/DX2                !
 ! R21   R(15,17)                1.1191         estimate D2E/DX2                !
 ! A1    A(2,1,5)              127.0035         estimate D2E/DX2                !
 ! A2    A(2,1,9)              109.191          estimate D2E/DX2                !
 ! A3    A(2,1,12)              90.816          estimate D2E/DX2                !
 ! A4    A(5,1,9)              123.5619         estimate D2E/DX2                !
 ! A5    A(5,1,12)              99.1894         estimate D2E/DX2                !
 ! A6    A(9,1,12)              83.4866         estimate D2E/DX2                !
 ! A7    A(1,2,3)              109.3362         estimate D2E/DX2                !
 ! A8    A(1,2,6)              126.362          estimate D2E/DX2                !
 ! A9    A(3,2,6)              124.281          estimate D2E/DX2                !
 ! A10   A(2,3,4)              109.3381         estimate D2E/DX2                !
 ! A11   A(2,3,7)              124.2827         estimate D2E/DX2                !
 ! A12   A(4,3,7)              126.358          estimate D2E/DX2                !
 ! A13   A(3,4,8)              126.9922         estimate D2E/DX2                !
 ! A14   A(3,4,9)              109.1931         estimate D2E/DX2                !
 ! A15   A(3,4,15)              90.7143         estimate D2E/DX2                !
 ! A16   A(8,4,9)              123.5673         estimate D2E/DX2                !
 ! A17   A(8,4,15)              99.2262         estimate D2E/DX2                !
 ! A18   A(9,4,15)              83.5936         estimate D2E/DX2                !
 ! A19   A(1,9,4)              102.4141         estimate D2E/DX2                !
 ! A20   A(1,9,10)             109.4285         estimate D2E/DX2                !
 ! A21   A(1,9,11)             113.5958         estimate D2E/DX2                !
 ! A22   A(4,9,10)             109.4265         estimate D2E/DX2                !
 ! A23   A(4,9,11)             113.6469         estimate D2E/DX2                !
 ! A24   A(10,9,11)            108.1745         estimate D2E/DX2                !
 ! A25   A(9,11,12)             92.8277         estimate D2E/DX2                !
 ! A26   A(9,11,14)            114.2943         estimate D2E/DX2                !
 ! A27   A(9,11,15)             92.7203         estimate D2E/DX2                !
 ! A28   A(14,11,15)            52.0653         estimate D2E/DX2                !
 ! A29   A(1,12,11)             52.1648         estimate D2E/DX2                !
 ! A30   A(1,12,13)            105.219          estimate D2E/DX2                !
 ! A31   A(1,12,14)            106.6565         estimate D2E/DX2                !
 ! A32   A(1,12,15)            100.3053         estimate D2E/DX2                !
 ! A33   A(11,12,13)           157.3815         estimate D2E/DX2                !
 ! A34   A(13,12,14)           109.8372         estimate D2E/DX2                !
 ! A35   A(13,12,15)           116.6937         estimate D2E/DX2                !
 ! A36   A(14,12,15)           116.4898         estimate D2E/DX2                !
 ! A37   A(4,15,11)             52.124          estimate D2E/DX2                !
 ! A38   A(4,15,12)            100.2587         estimate D2E/DX2                !
 ! A39   A(4,15,16)            106.5263         estimate D2E/DX2                !
 ! A40   A(4,15,17)            105.4404         estimate D2E/DX2                !
 ! A41   A(11,15,16)            80.683          estimate D2E/DX2                !
 ! A42   A(11,15,17)           157.5634         estimate D2E/DX2                !
 ! A43   A(12,15,16)           116.6621         estimate D2E/DX2                !
 ! A44   A(12,15,17)           116.5418         estimate D2E/DX2                !
 ! A45   A(16,15,17)           109.7845         estimate D2E/DX2                !
 ! D1    D(5,1,2,3)            179.0338         estimate D2E/DX2                !
 ! D2    D(5,1,2,6)             -2.5772         estimate D2E/DX2                !
 ! D3    D(9,1,2,3)              4.5857         estimate D2E/DX2                !
 ! D4    D(9,1,2,6)           -177.0253         estimate D2E/DX2                !
 ! D5    D(12,1,2,3)           -78.8012         estimate D2E/DX2                !
 ! D6    D(12,1,2,6)            99.5878         estimate D2E/DX2                !
 ! D7    D(2,1,9,4)             -6.9373         estimate D2E/DX2                !
 ! D8    D(2,1,9,10)           109.0877         estimate D2E/DX2                !
 ! D9    D(2,1,9,11)          -129.9156         estimate D2E/DX2                !
 ! D10   D(5,1,9,4)            178.3828         estimate D2E/DX2                !
 ! D11   D(5,1,9,10)           -65.5922         estimate D2E/DX2                !
 ! D12   D(5,1,9,11)            55.4045         estimate D2E/DX2                !
 ! D13   D(12,1,9,4)            81.6553         estimate D2E/DX2                !
 ! D14   D(12,1,9,10)         -162.3197         estimate D2E/DX2                !
 ! D15   D(12,1,9,11)          -41.323          estimate D2E/DX2                !
 ! D16   D(2,1,12,11)          128.7951         estimate D2E/DX2                !
 ! D17   D(2,1,12,13)          -51.5635         estimate D2E/DX2                !
 ! D18   D(2,1,12,14)         -168.2097         estimate D2E/DX2                !
 ! D19   D(2,1,12,15)           69.9464         estimate D2E/DX2                !
 ! D20   D(5,1,12,11)         -103.4667         estimate D2E/DX2                !
 ! D21   D(5,1,12,13)           76.1747         estimate D2E/DX2                !
 ! D22   D(5,1,12,14)          -40.4715         estimate D2E/DX2                !
 ! D23   D(5,1,12,15)         -162.3154         estimate D2E/DX2                !
 ! D24   D(9,1,12,11)           19.5712         estimate D2E/DX2                !
 ! D25   D(9,1,12,13)         -160.7874         estimate D2E/DX2                !
 ! D26   D(9,1,12,14)           82.5664         estimate D2E/DX2                !
 ! D27   D(9,1,12,15)          -39.2775         estimate D2E/DX2                !
 ! D28   D(1,2,3,4)              0.024          estimate D2E/DX2                !
 ! D29   D(1,2,3,7)            178.4371         estimate D2E/DX2                !
 ! D30   D(6,2,3,4)           -178.4059         estimate D2E/DX2                !
 ! D31   D(6,2,3,7)              0.0072         estimate D2E/DX2                !
 ! D32   D(2,3,4,8)           -179.0282         estimate D2E/DX2                !
 ! D33   D(2,3,4,9)             -4.6237         estimate D2E/DX2                !
 ! D34   D(2,3,4,15)            78.841          estimate D2E/DX2                !
 ! D35   D(7,3,4,8)              2.6            estimate D2E/DX2                !
 ! D36   D(7,3,4,9)            177.0045         estimate D2E/DX2                !
 ! D37   D(7,3,4,15)           -99.5308         estimate D2E/DX2                !
 ! D38   D(3,4,9,1)              6.9522         estimate D2E/DX2                !
 ! D39   D(3,4,9,10)          -109.0743         estimate D2E/DX2                !
 ! D40   D(3,4,9,11)           129.8961         estimate D2E/DX2                !
 ! D41   D(8,4,9,1)           -178.4109         estimate D2E/DX2                !
 ! D42   D(8,4,9,10)            65.5627         estimate D2E/DX2                !
 ! D43   D(8,4,9,11)           -55.4669         estimate D2E/DX2                !
 ! D44   D(15,4,9,1)           -81.5694         estimate D2E/DX2                !
 ! D45   D(15,4,9,10)          162.4042         estimate D2E/DX2                !
 ! D46   D(15,4,9,11)           41.3746         estimate D2E/DX2                !
 ! D47   D(3,4,15,11)         -128.7923         estimate D2E/DX2                !
 ! D48   D(3,4,15,12)          -70.4237         estimate D2E/DX2                !
 ! D49   D(3,4,15,16)          167.6135         estimate D2E/DX2                !
 ! D50   D(3,4,15,17)           50.9826         estimate D2E/DX2                !
 ! D51   D(8,4,15,11)          103.4978         estimate D2E/DX2                !
 ! D52   D(8,4,15,12)          161.8664         estimate D2E/DX2                !
 ! D53   D(8,4,15,16)           39.9035         estimate D2E/DX2                !
 ! D54   D(8,4,15,17)          -76.7274         estimate D2E/DX2                !
 ! D55   D(9,4,15,11)          -19.5573         estimate D2E/DX2                !
 ! D56   D(9,4,15,12)           38.8114         estimate D2E/DX2                !
 ! D57   D(9,4,15,16)          -83.1515         estimate D2E/DX2                !
 ! D58   D(9,4,15,17)          160.2176         estimate D2E/DX2                !
 ! D59   D(1,9,11,12)           41.1196         estimate D2E/DX2                !
 ! D60   D(1,9,11,14)           26.32           estimate D2E/DX2                !
 ! D61   D(1,9,11,15)           75.4907         estimate D2E/DX2                !
 ! D62   D(4,9,11,12)          -75.4544         estimate D2E/DX2                !
 ! D63   D(4,9,11,14)          -90.254          estimate D2E/DX2                !
 ! D64   D(4,9,11,15)          -41.0832         estimate D2E/DX2                !
 ! D65   D(10,9,11,12)         162.8171         estimate D2E/DX2                !
 ! D66   D(10,9,11,14)         148.0175         estimate D2E/DX2                !
 ! D67   D(10,9,11,15)        -162.8117         estimate D2E/DX2                !
 ! D68   D(9,11,12,1)          -27.6218         estimate D2E/DX2                !
 ! D69   D(9,11,12,13)         -28.5216         estimate D2E/DX2                !
 ! D70   D(9,11,15,4)           27.6013         estimate D2E/DX2                !
 ! D71   D(9,11,15,16)         147.1257         estimate D2E/DX2                !
 ! D72   D(9,11,15,17)          27.0328         estimate D2E/DX2                !
 ! D73   D(14,11,15,4)         146.6265         estimate D2E/DX2                !
 ! D74   D(14,11,15,16)        -93.849          estimate D2E/DX2                !
 ! D75   D(14,11,15,17)        146.058          estimate D2E/DX2                !
 ! D76   D(1,12,15,4)            0.2165         estimate D2E/DX2                !
 ! D77   D(1,12,15,16)         114.6947         estimate D2E/DX2                !
 ! D78   D(1,12,15,17)        -112.9145         estimate D2E/DX2                !
 ! D79   D(13,12,15,4)         113.1751         estimate D2E/DX2                !
 ! D80   D(13,12,15,16)       -132.3467         estimate D2E/DX2                !
 ! D81   D(13,12,15,17)          0.044          estimate D2E/DX2                !
 ! D82   D(14,12,15,4)        -114.3735         estimate D2E/DX2                !
 ! D83   D(14,12,15,16)          0.1048         estimate D2E/DX2                !
 ! D84   D(14,12,15,17)        132.4955         estimate D2E/DX2                !
 --------------------------------------------------------------------------------
 Trust Radius=3.00D-01 FncErr=1.00D-07 GrdErr=1.00D-06 EigMax=2.50D+02 EigMin=1.00D-04
 Number of steps in this run=    102 maximum allowed number of steps=    102.
 GradGradGradGradGradGradGradGradGradGradGradGradGradGradGradGradGradGrad

                          Input orientation:                          
 ---------------------------------------------------------------------
 Center     Atomic      Atomic             Coordinates (Angstroms)
 Number     Number       Type             X           Y           Z
 ---------------------------------------------------------------------
      1          6           0       -0.793692    1.185372   -0.335690
      2          6           0       -1.119238    0.731433    0.897277
      3          6           0       -1.119089   -0.739821    0.890465
      4          6           0       -0.792932   -1.182308   -0.346523
      5          1           0       -0.724258    2.216348   -0.651778
      6          1           0       -1.323294    1.336406    1.769924
      7          1           0       -1.323127   -1.352915    1.757429
      8          1           0       -0.723300   -2.210380   -0.671910
      9          6           0       -0.663676    0.005770   -1.283827
     10          1           0       -1.509459    0.008682   -1.990906
     11          1           0        0.262871    0.009247   -1.861203
     12          6           0        1.627032    0.737284    0.099408
     13          1           0        1.847686    1.238528    1.073403
     14          1           0        2.204501    1.242055   -0.731379
     15          6           0        1.626693   -0.737940    0.098397
     16          1           0        2.204064   -1.244430   -0.730043
     17          1           0        1.846983   -1.238710    1.074604
 ---------------------------------------------------------------------
                    Distance matrix (angstroms):
                    1          2          3          4          5
     1  C    0.000000
     2  C    1.353606   0.000000
     3  C    2.305582   1.471270   0.000000
     4  C    2.367705   2.305628   1.353629   0.000000
     5  H    1.080576   2.181869   3.357580   3.413028   0.000000
     6  H    2.176442   1.081270   2.264038   3.332349   2.645332
     7  H    3.332319   2.264054   1.081269   2.176425   4.347708
     8  H    3.413082   3.357585   2.181790   1.080582   4.426774
     9  C    1.518989   2.343360   2.343257   1.518807   2.299959
    10  H    2.153291   3.002706   3.002490   2.153106   2.698813
    11  H    2.196995   3.168752   3.169005   2.197448   2.703410
    12  C    2.500000   2.859830   3.216954   3.120884   2.877582
    13  H    2.994202   3.015096   3.570586   3.853505   3.247657
    14  H    3.024722   3.736375   4.195767   3.874307   3.087590
    15  C    3.121830   3.215183   2.857743   2.500000   3.849357
    16  H    3.878916   4.194823   3.731491   3.022074   4.534113
    17  H    3.852047   3.565302   3.013367   2.998655   4.639946
                    6          7          8          9         10
     6  H    0.000000
     7  H    2.689350   0.000000
     8  H    4.347670   2.645133   0.000000
     9  C    3.395745   3.395606   2.299852   0.000000
    10  H    3.992662   3.992328   2.698524   1.102415   0.000000
    11  H    4.178798   4.179159   2.704384   1.091725   1.777070
    12  C    3.442963   3.977613   3.848080   2.774130   3.838991
    13  H    3.248051   4.151810   4.642311   3.658301   4.708814
    14  H    4.325593   5.037082   4.527125   3.171756   4.111097
    15  C    3.974838   3.439770   2.878180   2.776587   3.841624
    16  H    5.035157   4.317449   3.083164   3.177044   4.117076
    17  H    4.143109   3.244825   3.255888   3.662559   4.713708
                   11         12         13         14         15
    11  H    0.000000
    12  C    2.496992   0.000000
    13  H    3.554530   1.117407   0.000000
    14  H    2.562469   1.130695   1.839719   0.000000
    15  C    2.501665   1.475225   2.214927   2.223234   0.000000
    16  H    2.572831   2.224443   3.089418   2.486485   1.129691
    17  H    3.561709   2.214484   2.477238   3.089270   1.119053
                   16         17
    16  H    0.000000
    17  H    1.839644   0.000000
 Stoichiometry    C7H10
 Framework group  C1[X(C7H10)]
 Deg. of freedom    45
 Full point group                 C1      NOp   1
 Largest Abelian subgroup         C1      NOp   1
 Largest concise Abelian subgroup C1      NOp   1
                         Standard orientation:                         
 ---------------------------------------------------------------------
 Center     Atomic      Atomic             Coordinates (Angstroms)
 Number     Number       Type             X           Y           Z
 ---------------------------------------------------------------------
      1          6           0       -0.685694   -1.185212    0.358005
      2          6           0       -1.077630   -0.732297   -0.855874
      3          6           0       -1.077498    0.738962   -0.850198
      4          6           0       -0.684970    1.182476    0.366983
      5          1           0       -0.598980   -2.215928    0.670653
      6          1           0       -1.328470   -1.337989   -1.715735
      7          1           0       -1.328332    1.351341   -1.705310
      8          1           0       -0.598094    2.210815    0.687342
      9          6           0       -0.504850   -0.004849    1.296817
     10          1           0       -1.311113   -0.007401    2.048649
     11          1           0        0.451596   -0.007676    1.823189
     12          6           0        1.707808   -0.736926   -0.207844
     13          1           0        1.875541   -1.238873   -1.191975
     14          1           0        2.329538   -1.240927    0.590846
     15          6           0        1.707137    0.738299   -0.207936
     16          1           0        2.328377    1.245556    0.587647
     17          1           0        1.874125    1.238363   -1.195018
 ---------------------------------------------------------------------
 Rotational constants (GHZ):           3.6300957           2.5775152           2.3432885
 Standard basis: 3-21G (6D, 7F)
 There are    83 symmetry adapted cartesian basis functions of A   symmetry.
 There are    83 symmetry adapted basis functions of A   symmetry.
    83 basis functions,   135 primitive gaussians,    83 cartesian basis functions
    26 alpha electrons       26 beta electrons
       nuclear repulsion energy       286.8077977466 Hartrees.
 NAtoms=   17 NActive=   17 NUniq=   17 SFac= 1.00D+00 NAtFMM=   60 NAOKFM=F Big=F
 Integral buffers will be    131072 words long.
 Raffenetti 2 integral format.
 Two-electron integral symmetry is turned on.
 One-electron integrals computed using PRISM.
 NBasis=    83 RedAO= T EigKep=  4.39D-03  NBF=    83
 NBsUse=    83 1.00D-06 EigRej= -1.00D+00 NBFU=    83
 ExpMin= 1.83D-01 ExpMax= 1.72D+02 ExpMxC= 1.72D+02 IAcc=3 IRadAn=         5 AccDes= 0.00D+00
 Harris functional with IExCor=  402 and IRadAn=       5 diagonalized for initial guess.
 HarFok:  IExCor=  402 AccDes= 0.00D+00 IRadAn=         5 IDoV= 1 UseB2=F ITyADJ=14
 ICtDFT=  3500011 ScaDFX=  1.000000  1.000000  1.000000  1.000000
 FoFCou: FMM=F IPFlag=           0 FMFlag=      100000 FMFlg1=           0
         NFxFlg=           0 DoJE=T BraDBF=F KetDBF=T FulRan=T
         wScrn=  0.000000 ICntrl=       500 IOpCl=  0 I1Cent=   200000004 NGrid=           0
         NMat0=    1 NMatS0=      1 NMatT0=    0 NMatD0=    1 NMtDS0=    0 NMtDT0=    0
 Petite list used in FoFCou.
 Keep R1 ints in memory in canonical form, NReq=7891734.
 Requested convergence on RMS density matrix=1.00D-08 within 128 cycles.
 Requested convergence on MAX density matrix=1.00D-06.
 Requested convergence on             energy=1.00D-06.
 No special actions if energy rises.
 Integral accuracy reduced to 1.0D-05 until final iterations.
 Initial convergence to 1.0D-05 achieved.  Increase integral accuracy.
 SCF Done:  E(RB3LYP) =  -271.142392153     A.U. after   14 cycles
            NFock= 14  Conv=0.46D-08     -V/T= 2.0103

 **********************************************************************

            Population analysis using the SCF Density.

 **********************************************************************

 Orbital symmetries:
       Occupied  (A) (A) (A) (A) (A) (A) (A) (A) (A) (A) (A) (A)
                 (A) (A) (A) (A) (A) (A) (A) (A) (A) (A) (A) (A)
                 (A) (A)
       Virtual   (A) (A) (A) (A) (A) (A) (A) (A) (A) (A) (A) (A)
                 (A) (A) (A) (A) (A) (A) (A) (A) (A) (A) (A) (A)
                 (A) (A) (A) (A) (A) (A) (A) (A) (A) (A) (A) (A)
                 (A) (A) (A) (A) (A) (A) (A) (A) (A) (A) (A) (A)
                 (A) (A) (A) (A) (A) (A) (A) (A) (A)
 The electronic state is 1-A.
 Alpha  occ. eigenvalues --  -10.12756 -10.12721 -10.12100 -10.11824 -10.11710
 Alpha  occ. eigenvalues --  -10.11535 -10.11430  -0.85784  -0.71203  -0.70785
 Alpha  occ. eigenvalues --   -0.69682  -0.55356  -0.55061  -0.52724  -0.51489
 Alpha  occ. eigenvalues --   -0.44156  -0.41844  -0.40279  -0.37647  -0.37400
 Alpha  occ. eigenvalues --   -0.35739  -0.35682  -0.32424  -0.30150  -0.22608
 Alpha  occ. eigenvalues --   -0.20319
 Alpha virt. eigenvalues --   -0.00318  -0.00055   0.10252   0.12767   0.14860
 Alpha virt. eigenvalues --    0.15541   0.18068   0.18532   0.19271   0.19514
 Alpha virt. eigenvalues --    0.20041   0.21715   0.21915   0.25934   0.27077
 Alpha virt. eigenvalues --    0.32109   0.38350   0.40532   0.47198   0.67200
 Alpha virt. eigenvalues --    0.68782   0.70027   0.72584   0.73071   0.75601
 Alpha virt. eigenvalues --    0.76778   0.77109   0.80069   0.80671   0.81838
 Alpha virt. eigenvalues --    0.86361   0.89802   0.90073   0.94163   0.97580
 Alpha virt. eigenvalues --    0.99386   1.00218   1.00648   1.03308   1.04714
 Alpha virt. eigenvalues --    1.05919   1.06794   1.07389   1.08707   1.11393
 Alpha virt. eigenvalues --    1.19010   1.21213   1.31025   1.36408   1.38589
 Alpha virt. eigenvalues --    1.42498   1.61672   1.74506   1.90743   2.09999
 Alpha virt. eigenvalues --    2.17739   2.27144
          Condensed to atoms (all electrons):
               1          2          3          4          5          6
     1  C    5.259425   0.488960  -0.107302  -0.115081   0.391799  -0.038168
     2  C    0.488960   5.171847   0.426433  -0.107296  -0.035552   0.388561
     3  C   -0.107302   0.426433   5.171855   0.488904   0.003951  -0.031698
     4  C   -0.115081  -0.107296   0.488904   5.259465   0.002872   0.003550
     5  H    0.391799  -0.035552   0.003951   0.002872   0.488298  -0.002090
     6  H   -0.038168   0.388561  -0.031698   0.003550  -0.002090   0.499780
     7  H    0.003550  -0.031686   0.388550  -0.038169  -0.000050  -0.000868
     8  H    0.002873   0.003950  -0.035552   0.391796  -0.000030  -0.000050
     9  C    0.331852  -0.124925  -0.124961   0.331822  -0.030927   0.004483
    10  H   -0.038896   0.002585   0.002577  -0.038881  -0.000233  -0.000109
    11  H   -0.032971   0.002964   0.002965  -0.032908  -0.000526  -0.000071
    12  C    0.027900  -0.012817  -0.011933  -0.012603  -0.002542   0.000002
    13  H   -0.002898  -0.001711   0.000191   0.000342  -0.000005   0.000093
    14  H   -0.001335   0.000035   0.000145   0.000474   0.000155   0.000000
    15  C   -0.012563  -0.011978  -0.012901   0.027929  -0.000031  -0.000050
    16  H    0.000474   0.000145   0.000027  -0.001366  -0.000001   0.000000
    17  H    0.000339   0.000192  -0.001705  -0.002876  -0.000001  -0.000001
               7          8          9         10         11         12
     1  C    0.003550   0.002873   0.331852  -0.038896  -0.032971   0.027900
     2  C   -0.031686   0.003950  -0.124925   0.002585   0.002964  -0.012817
     3  C    0.388550  -0.035552  -0.124961   0.002577   0.002965  -0.011933
     4  C   -0.038169   0.391796   0.331822  -0.038881  -0.032908  -0.012603
     5  H   -0.000050  -0.000030  -0.030927  -0.000233  -0.000526  -0.002542
     6  H   -0.000868  -0.000050   0.004483  -0.000109  -0.000071   0.000002
     7  H    0.499731  -0.002090   0.004483  -0.000109  -0.000070  -0.000050
     8  H   -0.002090   0.488302  -0.030934  -0.000233  -0.000526  -0.000032
     9  C    0.004483  -0.030934   5.408770   0.339020   0.363796  -0.023258
    10  H   -0.000109  -0.000233   0.339020   0.540112  -0.023465   0.001666
    11  H   -0.000070  -0.000526   0.363796  -0.023465   0.497684  -0.001799
    12  C   -0.000050  -0.000032  -0.023258   0.001666  -0.001799   5.304757
    13  H   -0.000001  -0.000001   0.000411  -0.000007   0.000138   0.372038
    14  H    0.000000  -0.000001  -0.000849   0.000010   0.000298   0.362848
    15  C   -0.000000  -0.002543  -0.023012   0.001654  -0.001852   0.465524
    16  H    0.000000   0.000159  -0.000812   0.000010   0.000274  -0.042805
    17  H    0.000094  -0.000005   0.000407  -0.000007   0.000138  -0.041505
              13         14         15         16         17
     1  C   -0.002898  -0.001335  -0.012563   0.000474   0.000339
     2  C   -0.001711   0.000035  -0.011978   0.000145   0.000192
     3  C    0.000191   0.000145  -0.012901   0.000027  -0.001705
     4  C    0.000342   0.000474   0.027929  -0.001366  -0.002876
     5  H   -0.000005   0.000155  -0.000031  -0.000001  -0.000001
     6  H    0.000093   0.000000  -0.000050   0.000000  -0.000001
     7  H   -0.000001   0.000000  -0.000000   0.000000   0.000094
     8  H   -0.000001  -0.000001  -0.002543   0.000159  -0.000005
     9  C    0.000411  -0.000849  -0.023012  -0.000812   0.000407
    10  H   -0.000007   0.000010   0.001654   0.000010  -0.000007
    11  H    0.000138   0.000298  -0.001852   0.000274   0.000138
    12  C    0.372038   0.362848   0.465524  -0.042805  -0.041505
    13  H    0.541771  -0.039318  -0.041345   0.003174  -0.004305
    14  H   -0.039318   0.559163  -0.043012  -0.004199   0.003194
    15  C   -0.041345  -0.043012   5.304456   0.362972   0.371764
    16  H    0.003174  -0.004199   0.362972   0.558421  -0.039359
    17  H   -0.004305   0.003194   0.371764  -0.039359   0.542778
 Mulliken charges:
               1
     1  C   -0.157958
     2  C   -0.159706
     3  C   -0.159545
     4  C   -0.157974
     5  H    0.184913
     6  H    0.176634
     7  H    0.176683
     8  H    0.184918
     9  C   -0.425368
    10  H    0.214307
    11  H    0.225931
    12  C   -0.385390
    13  H    0.171431
    14  H    0.162391
    15  C   -0.385011
    16  H    0.162886
    17  H    0.170857
 Sum of Mulliken charges =  -0.00000
 Mulliken charges with hydrogens summed into heavy atoms:
               1
     1  C    0.026955
     2  C    0.016928
     3  C    0.017138
     4  C    0.026945
     9  C    0.014871
    12  C   -0.051568
    15  C   -0.051268
 Electronic spatial extent (au):  <R**2>=            695.6653
 Charge=             -0.0000 electrons
 Dipole moment (field-independent basis, Debye):
    X=             -0.1437    Y=              0.0004    Z=              0.3134  Tot=              0.3448
 Quadrupole moment (field-independent basis, Debye-Ang):
   XX=            -45.9408   YY=            -40.9920   ZZ=            -40.3671
   XY=             -0.0016   XZ=              1.0983   YZ=              0.0044
 Traceless Quadrupole moment (field-independent basis, Debye-Ang):
   XX=             -3.5075   YY=              1.4413   ZZ=              2.0662
   XY=             -0.0016   XZ=              1.0983   YZ=              0.0044
 Octapole moment (field-independent basis, Debye-Ang**2):
  XXX=              4.2482  YYY=             -0.0004  ZZZ=             -1.8490  XYY=             -0.9621
  XXY=              0.0146  XXZ=              0.9233  XZZ=             -2.0996  YZZ=              0.0030
  YYZ=             -0.0227  XYZ=              0.0168
 Hexadecapole moment (field-independent basis, Debye-Ang**3):
 XXXX=           -473.6418 YYYY=           -262.4106 ZZZZ=           -216.2656 XXXY=              0.0173
 XXXZ=              6.1171 YYYX=             -0.0118 YYYZ=              0.0494 ZZZX=              3.3949
 ZZZY=              0.0263 XXYY=           -118.0004 XXZZ=           -102.8595 YYZZ=            -77.5157
 XXYZ=             -0.0082 YYXZ=              2.1246 ZZXY=             -0.0092
 N-N= 2.868077977466D+02 E-N=-1.200698498610D+03  KE= 2.683870141981D+02
 Calling FoFJK, ICntrl=      2127 FMM=F ISym2X=0 I1Cent= 0 IOpClX= 0 NMat=1 NMatS=1 NMatT=0.
 ***** Axes restored to original set *****
 -------------------------------------------------------------------
 Center     Atomic                   Forces (Hartrees/Bohr)
 Number     Number              X              Y              Z
 -------------------------------------------------------------------
      1        6           0.018831798    0.001337771   -0.008846665
      2        6          -0.011865520   -0.020577914    0.012553106
      3        6          -0.011793305    0.020489979    0.012770894
      4        6           0.018781588   -0.001316008   -0.008824942
      5        1          -0.001406549   -0.000506254   -0.000303755
      6        1           0.000666860   -0.000231086    0.000012502
      7        1           0.000674728    0.000230461    0.000015395
      8        1          -0.001399816    0.000509539   -0.000301393
      9        6          -0.010358188    0.000102729   -0.010255955
     10        1          -0.002184184   -0.000012846    0.000158003
     11        1          -0.004556501   -0.000056481   -0.000475347
     12        6           0.047644339   -0.060053976    0.006240916
     13        1          -0.019236555   -0.006706108   -0.013698525
     14        1          -0.026037196   -0.009342047    0.008976684
     15        6           0.047488544    0.059821479    0.007992306
     16        1          -0.025796506    0.009394586    0.008477613
     17        1          -0.019453538    0.006916176   -0.014490837
 -------------------------------------------------------------------
 Cartesian Forces:  Max     0.060053976 RMS     0.018406184

 GradGradGradGradGradGradGradGradGradGradGradGradGradGradGradGradGradGrad
 Berny optimization.
 FormGI is forming the generalized inverse of G from B-inverse, IUseBI=4.
 Internal  Forces:  Max     0.056459217 RMS     0.007176032
 Search for a local minimum.
 Step number   1 out of a maximum of  102
 All quantities printed in internal units (Hartrees-Bohrs-Radians)
 Mixed Optimization -- RFO/linear search
 Second derivative matrix not updated -- first step.
 ITU=  0
     Eigenvalues ---    0.00749   0.01358   0.01638   0.01927   0.02282
     Eigenvalues ---    0.02392   0.02767   0.02920   0.03020   0.03586
     Eigenvalues ---    0.03774   0.04069   0.04580   0.05114   0.05273
     Eigenvalues ---    0.05964   0.06105   0.06421   0.06819   0.06821
     Eigenvalues ---    0.07158   0.09263   0.11310   0.12335   0.13955
     Eigenvalues ---    0.15985   0.15992   0.20603   0.25084   0.25811
     Eigenvalues ---    0.27844   0.29315   0.30601   0.31660   0.31828
     Eigenvalues ---    0.33120   0.33416   0.35841   0.35841   0.35924
     Eigenvalues ---    0.35925   0.45432   0.529641000.000001000.00000
     Eigenvalues --- 1000.000001000.000001000.000001000.000001000.00000
     Eigenvalues --- 1000.000001000.000001000.000001000.000001000.00000
     Eigenvalues --- 1000.000001000.000001000.000001000.000001000.00000
     Eigenvalues --- 1000.000001000.000001000.000001000.000001000.00000
     Eigenvalues --- 1000.000001000.000001000.000001000.000001000.00000
     Eigenvalues --- 1000.000001000.000001000.000001000.000001000.00000
     Eigenvalues --- 1000.000001000.000001000.000001000.000001000.00000
     Eigenvalues --- 1000.000001000.000001000.000001000.000001000.00000
     Eigenvalues --- 1000.000001000.000001000.000001000.000001000.00000
     Eigenvalues --- 1000.000001000.000001000.000001000.000001000.00000
     Eigenvalues --- 1000.000001000.000001000.000001000.000001000.00000
     Eigenvalues --- 1000.000001000.000001000.000001000.000001000.00000
     Eigenvalues --- 1000.000001000.000001000.000001000.000001000.00000
     Eigenvalues --- 1000.000001000.000001000.000001000.000001000.00000
     Eigenvalues --- 1000.000001000.000001000.000001000.000001000.00000
     Eigenvalues --- 1000.000001000.000001000.000001000.000001000.00000
     Eigenvalues --- 1000.000001000.000001000.000001000.000001000.00000
     Eigenvalues --- 1000.000001000.000001000.000001000.000001000.00000
     Eigenvalues --- 1000.000001000.000001000.000001000.000001000.00000
     Eigenvalues --- 1000.000001000.000001000.000001000.000001000.00000
     Eigenvalues --- 1000.000001000.000001000.000001000.000001000.00000
 RFO step:  Lambda=-3.08206499D-02 EMin= 7.49117379D-03
 Linear search not attempted -- first point.
 Maximum step size (   0.300) exceeded in Quadratic search.
    -- Step size scaled by   0.952
 Iteration  1 RMS(Cart)=  0.02574309 RMS(Int)=  0.00110008
 Iteration  2 RMS(Cart)=  0.00079266 RMS(Int)=  0.00061251
 Iteration  3 RMS(Cart)=  0.00000100 RMS(Int)=  0.00061250
 Iteration  1 RMS(Cart)=  0.00004325 RMS(Int)=  0.00002069
 Iteration  2 RMS(Cart)=  0.00001186 RMS(Int)=  0.00002275
 Iteration  3 RMS(Cart)=  0.00000420 RMS(Int)=  0.00002433
 Iteration  4 RMS(Cart)=  0.00000165 RMS(Int)=  0.00002504
 Iteration  5 RMS(Cart)=  0.00000066 RMS(Int)=  0.00002533
 Variable       Old X    -DE/DX   Delta X   Delta X   Delta X     New X
                                 (Linear)    (Quad)   (Total)
    R1        2.55794   0.01424   0.00000   0.02476   0.02497   2.58292
    R2        2.04199  -0.00048   0.00000  -0.00118  -0.00118   2.04081
    R3        2.87047  -0.00228   0.00000  -0.00366  -0.00382   2.86665
    R4        4.72432   0.00502   0.00000   0.00000  -0.00000   4.72431
    R5        2.78030  -0.02075   0.00000  -0.04600  -0.04533   2.73497
    R6        2.04330  -0.00025   0.00000  -0.00060  -0.00060   2.04270
    R7        2.55799   0.01427   0.00000   0.02486   0.02508   2.58307
    R8        2.04330  -0.00025   0.00000  -0.00060  -0.00060   2.04270
    R9        2.04200  -0.00048   0.00000  -0.00118  -0.00118   2.04082
   R10        2.87013  -0.00270   0.00000  -0.00460  -0.00473   2.86540
   R11        4.72432   0.00494   0.00000   0.00000   0.00000   4.72432
   R12        2.08326   0.00157   0.00000   0.00411   0.00411   2.08737
   R13        2.06306  -0.00607   0.00000  -0.00564  -0.00508   2.05798
   R14        4.71863   0.00111   0.00000   0.03716   0.03675   4.75538
   R15        4.84236  -0.00927   0.00000  -0.07804  -0.07750   4.76486
   R16        4.72746  -0.00306   0.00000   0.03024   0.03014   4.75760
   R17        2.11159  -0.01875   0.00000  -0.05113  -0.05113   2.06046
   R18        2.13670  -0.01759   0.00000  -0.05987  -0.05910   2.07761
   R19        2.78777  -0.05646   0.00000  -0.17244  -0.17323   2.61454
   R20        2.13481  -0.02361   0.00000  -0.06675  -0.06675   2.06806
   R21        2.11470  -0.01956   0.00000  -0.05362  -0.05362   2.06108
    A1        2.21663  -0.00196   0.00000  -0.00684  -0.00693   2.20970
    A2        1.90574   0.00197   0.00000   0.00840   0.00762   1.91336
    A3        1.58504   0.00140   0.00000   0.02755   0.02749   1.61253
    A4        2.15656  -0.00030   0.00000  -0.00607  -0.00640   2.15017
    A5        1.73118   0.00246   0.00000   0.00501   0.00491   1.73609
    A6        1.45712  -0.00096   0.00000   0.01479   0.01486   1.47198
    A7        1.90828  -0.00018   0.00000  -0.00323  -0.00370   1.90458
    A8        2.20543   0.00019   0.00000   0.00188   0.00199   2.20742
    A9        2.16911  -0.00009   0.00000   0.00076   0.00087   2.16998
   A10        1.90831  -0.00017   0.00000  -0.00310  -0.00355   1.90476
   A11        2.16914  -0.00010   0.00000   0.00068   0.00077   2.16992
   A12        2.20536   0.00020   0.00000   0.00180   0.00190   2.20726
   A13        2.21643  -0.00199   0.00000  -0.00689  -0.00698   2.20945
   A14        1.90578   0.00208   0.00000   0.00854   0.00776   1.91354
   A15        1.58326   0.00086   0.00000   0.02598   0.02586   1.60913
   A16        2.15666  -0.00037   0.00000  -0.00602  -0.00626   2.15039
   A17        1.73182   0.00372   0.00000   0.00696   0.00689   1.73872
   A18        1.45898  -0.00202   0.00000   0.01224   0.01242   1.47140
   A19        1.78746  -0.00460   0.00000  -0.02136  -0.02200   1.76547
   A20        1.90989   0.00296   0.00000   0.01748   0.01739   1.92728
   A21        1.98262   0.00069   0.00000  -0.01081  -0.01083   1.97179
   A22        1.90985   0.00372   0.00000   0.01753   0.01773   1.92758
   A23        1.98351  -0.00081   0.00000  -0.01099  -0.01124   1.97227
   A24        1.88800  -0.00165   0.00000   0.00902   0.00911   1.89711
   A25        1.62015   0.00128   0.00000   0.00252   0.00257   1.62272
   A26        1.99481  -0.00314   0.00000  -0.01778  -0.01820   1.97661
   A27        1.61827   0.00173   0.00000   0.00218   0.00223   1.62050
   A28        0.90871  -0.01194   0.00000  -0.03194  -0.03300   0.87571
   A29        0.91045  -0.00201   0.00000  -0.00897  -0.00886   0.90159
   A30        1.83642  -0.00626   0.00000  -0.04870  -0.04873   1.78768
   A31        1.86151  -0.00813   0.00000  -0.07386  -0.07387   1.78764
   A32        1.75066   0.00349   0.00000   0.01097   0.01079   1.76145
   A33        2.74683  -0.00827   0.00000  -0.05773  -0.05767   2.68916
   A34        1.91702   0.00297   0.00000   0.04395   0.03994   1.95696
   A35        2.03669  -0.00081   0.00000   0.00772   0.00767   2.04436
   A36        2.03313   0.00596   0.00000   0.03236   0.03146   2.06459
   A37        0.90973  -0.00211   0.00000  -0.00851  -0.00849   0.90124
   A38        1.74984   0.00566   0.00000   0.01648   0.01652   1.76637
   A39        1.85923  -0.00766   0.00000  -0.06519  -0.06535   1.79388
   A40        1.84028  -0.00638   0.00000  -0.04930  -0.04937   1.79091
   A41        1.40818  -0.00541   0.00000  -0.04302  -0.04378   1.36441
   A42        2.75000  -0.00849   0.00000  -0.05776  -0.05785   2.69215
   A43        2.03614   0.00220   0.00000   0.02412   0.02357   2.05971
   A44        2.03404  -0.00318   0.00000   0.00528   0.00593   2.03997
   A45        1.91610   0.00699   0.00000   0.04409   0.04033   1.95643
    D1        3.12473   0.00096   0.00000  -0.00379  -0.00356   3.12117
    D2       -0.04498  -0.00195   0.00000  -0.02689  -0.02674  -0.07172
    D3        0.08004   0.00423   0.00000   0.04771   0.04791   0.12795
    D4       -3.08967   0.00132   0.00000   0.02461   0.02473  -3.06495
    D5       -1.37534   0.00481   0.00000   0.02266   0.02255  -1.35279
    D6        1.73814   0.00190   0.00000  -0.00044  -0.00063   1.73750
    D7       -0.12108  -0.00583   0.00000  -0.07033  -0.06995  -0.19103
    D8        1.90394  -0.00265   0.00000  -0.05375  -0.05371   1.85023
    D9       -2.26745  -0.00217   0.00000  -0.03685  -0.03679  -2.30424
   D10        3.11337  -0.00257   0.00000  -0.02089  -0.02051   3.09285
   D11       -1.14480   0.00060   0.00000  -0.00430  -0.00427  -1.14907
   D12        0.96699   0.00109   0.00000   0.01259   0.01265   0.97964
   D13        1.42515  -0.00491   0.00000  -0.03680  -0.03623   1.38893
   D14       -2.83301  -0.00174   0.00000  -0.02022  -0.01999  -2.85300
   D15       -0.72122  -0.00125   0.00000  -0.00332  -0.00307  -0.72429
   D16        2.24790   0.00167   0.00000   0.00662   0.00644   2.25434
   D17       -0.89995   0.00142   0.00000   0.00163   0.00148  -0.89847
   D18       -2.93581   0.00469   0.00000   0.00811   0.00708  -2.92873
   D19        1.22079  -0.00035   0.00000  -0.00363  -0.00379   1.21701
   D20       -1.80583   0.00032   0.00000   0.00628   0.00643  -1.79940
   D21        1.32950   0.00007   0.00000   0.00129   0.00148   1.33097
   D22       -0.70636   0.00334   0.00000   0.00777   0.00707  -0.69929
   D23       -2.83294  -0.00170   0.00000  -0.00397  -0.00379  -2.83673
   D24        0.34158  -0.00017   0.00000   0.00173   0.00173   0.34331
   D25       -2.80627  -0.00042   0.00000  -0.00326  -0.00323  -2.80950
   D26        1.44106   0.00284   0.00000   0.00322   0.00237   1.44343
   D27       -0.68552  -0.00220   0.00000  -0.00852  -0.00850  -0.69402
   D28        0.00042  -0.00029   0.00000  -0.00043  -0.00044  -0.00002
   D29        3.11432  -0.00296   0.00000  -0.02338  -0.02342   3.09090
   D30       -3.11377   0.00254   0.00000   0.02206   0.02211  -3.09166
   D31        0.00013  -0.00013   0.00000  -0.00089  -0.00086  -0.00074
   D32       -3.12463  -0.00069   0.00000   0.00240   0.00223  -3.12240
   D33       -0.08070  -0.00381   0.00000  -0.04709  -0.04728  -0.12798
   D34        1.37603  -0.00570   0.00000  -0.02529  -0.02510   1.35093
   D35        0.04538   0.00207   0.00000   0.02596   0.02585   0.07123
   D36        3.08931  -0.00105   0.00000  -0.02352  -0.02366   3.06565
   D37       -1.73714  -0.00295   0.00000  -0.00172  -0.00148  -1.73862
   D38        0.12134   0.00565   0.00000   0.07006   0.06967   0.19101
   D39       -1.90370   0.00302   0.00000   0.05351   0.05368  -1.85002
   D40        2.26711   0.00300   0.00000   0.03668   0.03677   2.30389
   D41       -3.11386   0.00254   0.00000   0.02254   0.02208  -3.09177
   D42        1.14429  -0.00009   0.00000   0.00599   0.00609   1.15038
   D43       -0.96808  -0.00011   0.00000  -0.01085  -0.01082  -0.97890
   D44       -1.42365   0.00570   0.00000   0.03911   0.03856  -1.38509
   D45        2.83449   0.00307   0.00000   0.02257   0.02257   2.85706
   D46        0.72212   0.00304   0.00000   0.00573   0.00566   0.72779
   D47       -2.24785  -0.00317   0.00000  -0.00843  -0.00824  -2.25609
   D48       -1.22912   0.00047   0.00000   0.00268   0.00264  -1.22648
   D49        2.92541  -0.00156   0.00000  -0.00591  -0.00507   2.92033
   D50        0.88981  -0.00302   0.00000  -0.00310  -0.00256   0.88725
   D51        1.80638  -0.00184   0.00000  -0.00795  -0.00812   1.79826
   D52        2.82510   0.00179   0.00000   0.00316   0.00277   2.82787
   D53        0.69645  -0.00024   0.00000  -0.00543  -0.00495   0.69150
   D54       -1.33915  -0.00169   0.00000  -0.00262  -0.00244  -1.34158
   D55       -0.34134  -0.00112   0.00000  -0.00313  -0.00324  -0.34458
   D56        0.67739   0.00252   0.00000   0.00798   0.00764   0.68503
   D57       -1.45127   0.00049   0.00000  -0.00060  -0.00007  -1.45134
   D58        2.79632  -0.00096   0.00000   0.00220   0.00244   2.79876
   D59        0.71767   0.00193   0.00000  -0.00199  -0.00224   0.71544
   D60        0.45937   0.00126   0.00000  -0.01505  -0.01408   0.44529
   D61        1.31756  -0.01042   0.00000  -0.04459  -0.04455   1.27302
   D62       -1.31693   0.00799   0.00000   0.04122   0.04103  -1.27589
   D63       -1.57523   0.00732   0.00000   0.02816   0.02919  -1.54604
   D64       -0.71704  -0.00436   0.00000  -0.00138  -0.00128  -0.71831
   D65        2.84170   0.00497   0.00000   0.01963   0.01931   2.86101
   D66        2.58339   0.00430   0.00000   0.00658   0.00747   2.59086
   D67       -2.84160  -0.00738   0.00000  -0.02297  -0.02300  -2.86460
   D68       -0.48209  -0.00084   0.00000  -0.00426  -0.00405  -0.48615
   D69       -0.49780  -0.00119   0.00000  -0.01481  -0.01341  -0.51121
   D70        0.48173   0.00262   0.00000   0.00597   0.00596   0.48770
   D71        2.56783  -0.00155   0.00000  -0.03843  -0.03809   2.52974
   D72        0.47181   0.00320   0.00000   0.02068   0.01982   0.49163
   D73        2.55912   0.00148   0.00000  -0.00735  -0.00773   2.55138
   D74       -1.63797  -0.00269   0.00000  -0.05175  -0.05178  -1.68976
   D75        2.54919   0.00206   0.00000   0.00736   0.00613   2.55532
   D76        0.00378  -0.00007   0.00000   0.00043   0.00055   0.00433
   D77        2.00180  -0.00471   0.00000  -0.05689  -0.05749   1.94431
   D78       -1.97073   0.00532   0.00000   0.04673   0.04672  -1.92401
   D79        1.97528  -0.00568   0.00000  -0.04762  -0.04774   1.92754
   D80       -2.30989  -0.01033   0.00000  -0.10494  -0.10578  -2.41566
   D81        0.00077  -0.00030   0.00000  -0.00132  -0.00157  -0.00080
   D82       -1.99619   0.00490   0.00000   0.06802   0.06924  -1.92695
   D83        0.00183   0.00026   0.00000   0.01070   0.01120   0.01303
   D84        2.31248   0.01029   0.00000   0.11433   0.11541   2.42789
         Item               Value     Threshold  Converged?
 Maximum Force            0.055819     0.000450     NO 
 RMS     Force            0.007196     0.000300     NO 
 Maximum Displacement     0.098892     0.001800     NO 
 RMS     Displacement     0.025972     0.001200     NO 
 Predicted change in Energy=-1.799016D-02
 GradGradGradGradGradGradGradGradGradGradGradGradGradGradGradGradGradGrad

                          Input orientation:                          
 ---------------------------------------------------------------------
 Center     Atomic      Atomic             Coordinates (Angstroms)
 Number     Number       Type             X           Y           Z
 ---------------------------------------------------------------------
      1          6           0       -0.757724    1.172275   -0.330652
      2          6           0       -1.127548    0.718740    0.904555
      3          6           0       -1.129010   -0.728524    0.897400
      4          6           0       -0.760118   -1.170830   -0.342241
      5          1           0       -0.680832    2.203644   -0.641549
      6          1           0       -1.339222    1.324282    1.774595
      7          1           0       -1.341285   -1.342155    1.761605
      8          1           0       -0.684430   -2.199398   -0.662593
      9          6           0       -0.663110    0.004934   -1.294787
     10          1           0       -1.520804    0.009346   -1.990814
     11          1           0        0.257988    0.007059   -1.875799
     12          6           0        1.657418    0.691437    0.100482
     13          1           0        1.828462    1.187584    1.056225
     14          1           0        2.154259    1.211687   -0.730913
     15          6           0        1.653519   -0.692112    0.099559
     16          1           0        2.157231   -1.206968   -0.724358
     17          1           0        1.822971   -1.186379    1.056933
 ---------------------------------------------------------------------
                    Distance matrix (angstroms):
                    1          2          3          4          5
     1  C    0.000000
     2  C    1.366821   0.000000
     3  C    2.293251   1.447283   0.000000
     4  C    2.343135   2.293465   1.366903   0.000000
     5  H    1.079950   2.189733   3.341682   3.388650   0.000000
     6  H    2.189364   1.080952   2.242248   3.322942   2.654149
     7  H    3.322716   2.242211   1.080950   2.189354   4.334056
     8  H    3.388766   3.341832   2.189680   1.079957   4.403094
     9  C    1.516968   2.358459   2.358115   1.516303   2.293766
    10  H    2.165834   3.006835   3.006615   2.165469   2.709431
    11  H    2.185607   3.186937   3.186766   2.185353   2.688818
    12  C    2.499999   2.898847   3.227313   3.083590   2.881804
    13  H    2.934625   2.996801   3.527512   3.770753   3.195524
    14  H    2.939627   3.699731   4.146767   3.784316   3.004947
    15  C    3.078167   3.220692   2.894883   2.500001   3.792604
    16  H    3.783221   4.141435   3.695725   2.942490   4.437763
    17  H    3.761465   3.515431   2.991533   2.937733   4.543801
                    6          7          8          9         10
     6  H    0.000000
     7  H    2.666470   0.000000
     8  H    4.334162   2.653875   0.000000
     9  C    3.408653   3.408240   2.293296   0.000000
    10  H    3.992535   3.992422   2.709658   1.104588   0.000000
    11  H    4.196610   4.196280   2.688583   1.089037   1.782509
    12  C    3.490416   3.985856   3.797824   2.793369   3.865212
    13  H    3.250995   4.116362   4.554187   3.624066   4.678705
    14  H    4.300542   4.995356   4.438280   3.116372   4.066825
    15  C    3.978454   3.486231   2.884233   2.792283   3.864975
    16  H    4.987703   4.293937   3.010610   3.122246   4.075693
    17  H    4.100966   3.245511   3.204690   3.623590   4.679674
                   11         12         13         14         15
    11  H    0.000000
    12  C    2.516439   0.000000
    13  H    3.529419   1.090350   0.000000
    14  H    2.521455   1.099422   1.816752   0.000000
    15  C    2.517615   1.383554   2.116382   2.136556   0.000000
    16  H    2.531166   2.129346   3.002074   2.418666   1.094368
    17  H    3.531909   2.113858   2.373969   3.009462   1.090678
                   16         17
    16  H    0.000000
    17  H    1.812498   0.000000
 Stoichiometry    C7H10
 Framework group  C1[X(C7H10)]
 Deg. of freedom    45
 Full point group                 C1      NOp   1
 Largest Abelian subgroup         C1      NOp   1
 Largest concise Abelian subgroup C1      NOp   1
                         Standard orientation:                         
 ---------------------------------------------------------------------
 Center     Atomic      Atomic             Coordinates (Angstroms)
 Number     Number       Type             X           Y           Z
 ---------------------------------------------------------------------
      1          6           0       -0.653472   -1.174048    0.360578
      2          6           0       -1.102867   -0.724057   -0.849279
      3          6           0       -1.108499    0.723208   -0.844568
      4          6           0       -0.662616    1.169057    0.368211
      5          1           0       -0.553586   -2.204569    0.667727
      6          1           0       -1.367731   -1.331938   -1.702968
      7          1           0       -1.377488    1.334501   -1.694520
      8          1           0       -0.569916    2.198474    0.681281
      9          6           0       -0.501218   -0.004549    1.314665
     10          1           0       -1.312697   -0.010250    2.064054
     11          1           0        0.455104   -0.002707    1.835670
     12          6           0        1.727659   -0.686611   -0.224753
     13          1           0        1.838909   -1.184086   -1.188602
     14          1           0        2.278238   -1.203710    0.574120
     15          6           0        1.719402    0.696918   -0.225995
     16          1           0        2.273049    1.214925    0.563172
     17          1           0        1.825790    1.189843   -1.193096
 ---------------------------------------------------------------------
 Rotational constants (GHZ):           3.7044685           2.5551138           2.3656170
 Standard basis: 3-21G (6D, 7F)
 There are    83 symmetry adapted cartesian basis functions of A   symmetry.
 There are    83 symmetry adapted basis functions of A   symmetry.
    83 basis functions,   135 primitive gaussians,    83 cartesian basis functions
    26 alpha electrons       26 beta electrons
       nuclear repulsion energy       288.5183197038 Hartrees.
 NAtoms=   17 NActive=   17 NUniq=   17 SFac= 1.00D+00 NAtFMM=   60 NAOKFM=F Big=F
 Integral buffers will be    131072 words long.
 Raffenetti 2 integral format.
 Two-electron integral symmetry is turned on.
 One-electron integrals computed using PRISM.
 NBasis=    83 RedAO= T EigKep=  4.36D-03  NBF=    83
 NBsUse=    83 1.00D-06 EigRej= -1.00D+00 NBFU=    83
 Initial guess from the checkpoint file:  "C3.chk"
 B after Tr=    -0.000000    0.000000   -0.000000
         Rot=    0.999984    0.000467   -0.005333   -0.001551 Ang=   0.64 deg.
 ExpMin= 1.83D-01 ExpMax= 1.72D+02 ExpMxC= 1.72D+02 IAcc=3 IRadAn=         5 AccDes= 0.00D+00
 Harris functional with IExCor=  402 and IRadAn=       5 diagonalized for initial guess.
 HarFok:  IExCor=  402 AccDes= 0.00D+00 IRadAn=         5 IDoV= 1 UseB2=F ITyADJ=14
 ICtDFT=  3500011 ScaDFX=  1.000000  1.000000  1.000000  1.000000
 FoFCou: FMM=F IPFlag=           0 FMFlag=      100000 FMFlg1=           0
         NFxFlg=           0 DoJE=T BraDBF=F KetDBF=T FulRan=T
         wScrn=  0.000000 ICntrl=       500 IOpCl=  0 I1Cent=   200000004 NGrid=           0
         NMat0=    1 NMatS0=      1 NMatT0=    0 NMatD0=    1 NMtDS0=    0 NMtDT0=    0
 Petite list used in FoFCou.
 Keep R1 ints in memory in canonical form, NReq=7891734.
 Requested convergence on RMS density matrix=1.00D-08 within 128 cycles.
 Requested convergence on MAX density matrix=1.00D-06.
 Requested convergence on             energy=1.00D-06.
 No special actions if energy rises.
 Integral accuracy reduced to 1.0D-05 until final iterations.
 Initial convergence to 1.0D-05 achieved.  Increase integral accuracy.
 SCF Done:  E(RB3LYP) =  -271.163442324     A.U. after   13 cycles
            NFock= 13  Conv=0.42D-08     -V/T= 2.0091
 Calling FoFJK, ICntrl=      2127 FMM=F ISym2X=0 I1Cent= 0 IOpClX= 0 NMat=1 NMatS=1 NMatT=0.
 ***** Axes restored to original set *****
 -------------------------------------------------------------------
 Center     Atomic                   Forces (Hartrees/Bohr)
 Number     Number              X              Y              Z
 -------------------------------------------------------------------
      1        6           0.006803260    0.005661380   -0.000575865
      2        6          -0.005647229   -0.004537452   -0.000278116
      3        6          -0.005561869    0.004545982   -0.000181578
      4        6           0.006927753   -0.005745723   -0.000368791
      5        1          -0.001279311    0.000526394   -0.000017105
      6        1           0.000832595    0.000765424   -0.000436666
      7        1           0.000810481   -0.000768836   -0.000446893
      8        1          -0.001275616   -0.000518084   -0.000025721
      9        6          -0.003826501    0.000233977   -0.000875834
     10        1          -0.000654291   -0.000008459    0.002734278
     11        1          -0.003019379   -0.000006765   -0.002767110
     12        6           0.033834265   -0.020311918    0.004585910
     13        1          -0.014866524    0.003572398   -0.001935096
     14        1          -0.016487812   -0.000053495   -0.000936734
     15        6           0.033928140    0.022163760    0.007319310
     16        1          -0.015632348   -0.001911044   -0.003711450
     17        1          -0.014885612   -0.003607539   -0.002082539
 -------------------------------------------------------------------
 Cartesian Forces:  Max     0.033928140 RMS     0.009493170

 GradGradGradGradGradGradGradGradGradGradGradGradGradGradGradGradGradGrad
 Berny optimization.
 Using GEDIIS/GDIIS optimizer.
 FormGI is forming the generalized inverse of G from B-inverse, IUseBI=4.
 Internal  Forces:  Max     0.010811285 RMS     0.002560513
 Search for a local minimum.
 Step number   2 out of a maximum of  102
 All quantities printed in internal units (Hartrees-Bohrs-Radians)
 Mixed Optimization -- RFO/linear search
 Update second derivatives using D2CorX and points    1    2
 DE= -2.11D-02 DEPred=-1.80D-02 R= 1.17D+00
 TightC=F SS=  1.41D+00  RLast= 4.12D-01 DXNew= 5.0454D-01 1.2352D+00
 Trust test= 1.17D+00 RLast= 4.12D-01 DXMaxT set to 5.05D-01
 ITU=  1  0
 Use linear search instead of GDIIS.
     Eigenvalues ---    0.00767   0.01524   0.01734   0.01932   0.02292
     Eigenvalues ---    0.02406   0.02762   0.02928   0.03046   0.03185
     Eigenvalues ---    0.03652   0.03770   0.04730   0.04964   0.05198
     Eigenvalues ---    0.05934   0.06034   0.06423   0.06632   0.07128
     Eigenvalues ---    0.07236   0.08733   0.11300   0.12223   0.13910
     Eigenvalues ---    0.15949   0.15966   0.20562   0.25689   0.25831
     Eigenvalues ---    0.28071   0.29431   0.30862   0.31739   0.32217
     Eigenvalues ---    0.33371   0.35671   0.35841   0.35841   0.35924
     Eigenvalues ---    0.36155   0.45296   0.536241000.000001000.00000
     Eigenvalues --- 1000.000001000.000001000.000001000.000001000.00000
     Eigenvalues --- 1000.000001000.000001000.000001000.000001000.00000
     Eigenvalues --- 1000.000001000.000001000.000001000.000001000.00000
     Eigenvalues --- 1000.000001000.000001000.000001000.000001000.00000
     Eigenvalues --- 1000.000001000.000001000.000001000.000001000.00000
     Eigenvalues --- 1000.000001000.000001000.000001000.000001000.00000
     Eigenvalues --- 1000.000001000.000001000.000001000.000001000.00000
     Eigenvalues --- 1000.000001000.000001000.000001000.000001000.00000
     Eigenvalues --- 1000.000001000.000001000.000001000.000001000.00000
     Eigenvalues --- 1000.000001000.000001000.000001000.000001000.00000
     Eigenvalues --- 1000.000001000.000001000.000001000.000001000.00000
     Eigenvalues --- 1000.000001000.000001000.000001000.000001000.00000
     Eigenvalues --- 1000.000001000.000001000.000001000.000001000.00000
     Eigenvalues --- 1000.000001000.000001000.000001000.000001000.00000
     Eigenvalues --- 1000.000001000.000001000.000001000.000001000.00000
     Eigenvalues --- 1000.000001000.000001000.000001000.000001000.00000
     Eigenvalues --- 1000.000001000.000001000.000001000.000001000.00000
     Eigenvalues --- 1000.000001000.000001000.000001000.000001000.00000
     Eigenvalues --- 1000.000001000.000001000.000001000.000001000.00000
     Eigenvalues --- 1000.000001000.000001000.000001000.000001000.00000
     Eigenvalues --- 1000.000001000.000001000.000001000.000001000.00000
 RFO step:  Lambda=-8.95789645D-03 EMin= 7.66697205D-03
 Quartic linear search produced a step of  0.48131.
 Iteration  1 RMS(Cart)=  0.02785336 RMS(Int)=  0.00325058
 Iteration  2 RMS(Cart)=  0.00201416 RMS(Int)=  0.00251605
 Iteration  3 RMS(Cart)=  0.00000430 RMS(Int)=  0.00251604
 Iteration  4 RMS(Cart)=  0.00000001 RMS(Int)=  0.00251604
 Iteration  1 RMS(Cart)=  0.00007454 RMS(Int)=  0.00003208
 Iteration  2 RMS(Cart)=  0.00001810 RMS(Int)=  0.00003505
 Iteration  3 RMS(Cart)=  0.00000594 RMS(Int)=  0.00003714
 Iteration  4 RMS(Cart)=  0.00000230 RMS(Int)=  0.00003804
 Iteration  5 RMS(Cart)=  0.00000093 RMS(Int)=  0.00003841
 Variable       Old X    -DE/DX   Delta X   Delta X   Delta X     New X
                                 (Linear)    (Quad)   (Total)
    R1        2.58292   0.00137   0.01202  -0.00329   0.00923   2.59215
    R2        2.04081   0.00042  -0.00057   0.00196   0.00139   2.04220
    R3        2.86665   0.00014  -0.00184   0.00341   0.00115   2.86780
    R4        4.72431   0.00363  -0.00000   0.00000  -0.00000   4.72431
    R5        2.73497  -0.00188  -0.02182   0.00496  -0.01528   2.71969
    R6        2.04270  -0.00009  -0.00029  -0.00016  -0.00045   2.04225
    R7        2.58307   0.00124   0.01207  -0.00331   0.00931   2.59238
    R8        2.04270  -0.00008  -0.00029  -0.00014  -0.00043   2.04227
    R9        2.04082   0.00041  -0.00057   0.00194   0.00137   2.04219
   R10        2.86540   0.00021  -0.00228   0.00340   0.00057   2.86597
   R11        4.72432   0.00297   0.00000   0.00000   0.00000   4.72432
   R12        2.08737  -0.00121   0.00198  -0.00626  -0.00428   2.08308
   R13        2.05798  -0.00130  -0.00245  -0.00241  -0.00332   2.05466
   R14        4.75538   0.00224   0.01769   0.02650   0.04362   4.79900
   R15        4.76486  -0.00377  -0.03730  -0.07362  -0.11026   4.65460
   R16        4.75760   0.00099   0.01451   0.02137   0.03524   4.79284
   R17        2.06046  -0.00240  -0.02461   0.00475  -0.01986   2.04060
   R18        2.07761  -0.00465  -0.02844  -0.00595  -0.03165   2.04596
   R19        2.61454  -0.01081  -0.08338   0.00626  -0.07896   2.53557
   R20        2.06806  -0.00350  -0.03213   0.00425  -0.02788   2.04018
   R21        2.06108  -0.00251  -0.02581   0.00501  -0.02080   2.04029
    A1        2.20970   0.00007  -0.00334   0.00224  -0.00111   2.20858
    A2        1.91336  -0.00105   0.00367  -0.01645  -0.01364   1.89971
    A3        1.61253   0.00088   0.01323   0.01144   0.02481   1.63734
    A4        2.15017   0.00070  -0.00308   0.01066   0.00672   2.15689
    A5        1.73609   0.00092   0.00236   0.00744   0.00959   1.74568
    A6        1.47198  -0.00017   0.00715   0.00269   0.00987   1.48186
    A7        1.90458   0.00052  -0.00178   0.00621   0.00370   1.90827
    A8        2.20742  -0.00129   0.00096  -0.01213  -0.01097   2.19645
    A9        2.16998   0.00073   0.00042   0.00546   0.00607   2.17605
   A10        1.90476   0.00037  -0.00171   0.00603   0.00365   1.90841
   A11        2.16992   0.00080   0.00037   0.00557   0.00611   2.17603
   A12        2.20726  -0.00122   0.00091  -0.01199  -0.01088   2.19638
   A13        2.20945   0.00010  -0.00336   0.00237  -0.00105   2.20840
   A14        1.91354  -0.00092   0.00373  -0.01625  -0.01337   1.90017
   A15        1.60913   0.00085   0.01245   0.01232   0.02445   1.63358
   A16        2.15039   0.00055  -0.00301   0.01041   0.00666   2.15706
   A17        1.73872   0.00110   0.00332   0.00778   0.01136   1.75008
   A18        1.47140  -0.00038   0.00598   0.00101   0.00690   1.47830
   A19        1.76547   0.00049  -0.01059   0.01505   0.00410   1.76956
   A20        1.92728   0.00019   0.00837  -0.00825  -0.00012   1.92716
   A21        1.97179  -0.00033  -0.00521  -0.00307  -0.00820   1.96359
   A22        1.92758   0.00013   0.00853  -0.00935  -0.00049   1.92710
   A23        1.97227  -0.00074  -0.00541  -0.00021  -0.00586   1.96641
   A24        1.89711   0.00027   0.00439   0.00540   0.00987   1.90698
   A25        1.62272   0.00065   0.00124  -0.00807  -0.00705   1.61567
   A26        1.97661  -0.00136  -0.00876  -0.02443  -0.03473   1.94189
   A27        1.62050   0.00069   0.00107  -0.00784  -0.00711   1.61340
   A28        0.87571  -0.00194  -0.01588   0.01579  -0.00296   0.87275
   A29        0.90159  -0.00090  -0.00427  -0.00342  -0.00741   0.89417
   A30        1.78768  -0.00582  -0.02346  -0.06653  -0.08888   1.69881
   A31        1.78764  -0.00584  -0.03555  -0.08689  -0.12098   1.66666
   A32        1.76145   0.00071   0.00519   0.00228   0.00704   1.76849
   A33        2.68916  -0.00674  -0.02776  -0.07023  -0.09678   2.59237
   A34        1.95696   0.00165   0.01922   0.02087   0.02333   1.98029
   A35        2.04436   0.00225   0.00369   0.04110   0.04335   2.08771
   A36        2.06459   0.00332   0.01514   0.03807   0.04739   2.11198
   A37        0.90124  -0.00082  -0.00409  -0.00201  -0.00594   0.89530
   A38        1.76637   0.00160   0.00795   0.00342   0.01191   1.77827
   A39        1.79388  -0.00573  -0.03145  -0.08975  -0.12049   1.67339
   A40        1.79091  -0.00605  -0.02376  -0.06864  -0.09180   1.69911
   A41        1.36441  -0.00340  -0.02107  -0.04806  -0.07029   1.29412
   A42        2.69215  -0.00687  -0.02785  -0.07070  -0.09813   2.59402
   A43        2.05971   0.00197   0.01134   0.04669   0.05290   2.11261
   A44        2.03997   0.00170   0.00285   0.03872   0.04220   2.08217
   A45        1.95643   0.00316   0.01941   0.01925   0.02040   1.97683
    D1        3.12117  -0.00033  -0.00171  -0.01058  -0.01212   3.10905
    D2       -0.07172  -0.00133  -0.01287  -0.02016  -0.03284  -0.10457
    D3        0.12795   0.00166   0.02306   0.01494   0.03783   0.16578
    D4       -3.06495   0.00066   0.01190   0.00537   0.01711  -3.04784
    D5       -1.35279   0.00153   0.01086   0.00819   0.01914  -1.33364
    D6        1.73750   0.00053  -0.00030  -0.00138  -0.00158   1.73592
    D7       -0.19103  -0.00246  -0.03367  -0.02290  -0.05622  -0.24725
    D8        1.85023  -0.00197  -0.02585  -0.02918  -0.05470   1.79553
    D9       -2.30424  -0.00172  -0.01771  -0.03040  -0.04780  -2.35204
   D10        3.09285  -0.00049  -0.00987   0.00233  -0.00735   3.08551
   D11       -1.14907  -0.00001  -0.00206  -0.00395  -0.00583  -1.15490
   D12        0.97964   0.00024   0.00609  -0.00517   0.00108   0.98071
   D13        1.38893  -0.00147  -0.01744  -0.00818  -0.02527   1.36366
   D14       -2.85300  -0.00099  -0.00962  -0.01445  -0.02374  -2.87675
   D15       -0.72429  -0.00074  -0.00148  -0.01567  -0.01684  -0.74113
   D16        2.25434  -0.00093   0.00310  -0.01219  -0.00922   2.24512
   D17       -0.89847  -0.00139   0.00071  -0.02739  -0.02656  -0.92503
   D18       -2.92873   0.00096   0.00341   0.00443   0.00424  -2.92449
   D19        1.21701  -0.00077  -0.00182  -0.00583  -0.00797   1.20904
   D20       -1.79940  -0.00047   0.00310  -0.00574  -0.00198  -1.80138
   D21        1.33097  -0.00093   0.00071  -0.02095  -0.01932   1.31166
   D22       -0.69929   0.00142   0.00341   0.01087   0.01148  -0.68781
   D23       -2.83673  -0.00031  -0.00183   0.00062  -0.00073  -2.83746
   D24        0.34331   0.00021   0.00083   0.00535   0.00625   0.34957
   D25       -2.80950  -0.00025  -0.00155  -0.00985  -0.01109  -2.82058
   D26        1.44343   0.00210   0.00114   0.02197   0.01971   1.46314
   D27       -0.69402   0.00037  -0.00409   0.01171   0.00750  -0.68651
   D28       -0.00002  -0.00006  -0.00021  -0.00105  -0.00132  -0.00135
   D29        3.09090  -0.00106  -0.01127  -0.00940  -0.02092   3.06998
   D30       -3.09166   0.00099   0.01064   0.00891   0.01971  -3.07194
   D31       -0.00074  -0.00001  -0.00042   0.00056   0.00012  -0.00062
   D32       -3.12240   0.00041   0.00108   0.01193   0.01291  -3.10949
   D33       -0.12798  -0.00156  -0.02276  -0.01331  -0.03581  -0.16379
   D34        1.35093  -0.00166  -0.01208  -0.00796  -0.02032   1.33061
   D35        0.07123   0.00136   0.01244   0.01985   0.03216   0.10339
   D36        3.06565  -0.00062  -0.01139  -0.00539  -0.01657   3.04908
   D37       -1.73862  -0.00072  -0.00071  -0.00004  -0.00107  -1.73970
   D38        0.19101   0.00244   0.03354   0.02227   0.05543   0.24645
   D39       -1.85002   0.00191   0.02584   0.02774   0.05364  -1.79638
   D40        2.30389   0.00198   0.01770   0.02776   0.04536   2.34925
   D41       -3.09177   0.00050   0.01063  -0.00264   0.00775  -3.08403
   D42        1.15038  -0.00002   0.00293   0.00282   0.00596   1.15633
   D43       -0.97890   0.00005  -0.00521   0.00284  -0.00233  -0.98122
   D44       -1.38509   0.00157   0.01856   0.00719   0.02585  -1.35924
   D45        2.85706   0.00105   0.01086   0.01266   0.02406   2.88112
   D46        0.72779   0.00112   0.00273   0.01268   0.01578   0.74356
   D47       -2.25609   0.00052  -0.00397   0.01379   0.00970  -2.24640
   D48       -1.22648   0.00080   0.00127   0.01265   0.01353  -1.21295
   D49        2.92033   0.00018  -0.00244  -0.00575  -0.00500   2.91534
   D50        0.88725   0.00104  -0.00123   0.03094   0.03085   0.91810
   D51        1.79826   0.00000  -0.00391   0.00695   0.00211   1.80036
   D52        2.82787   0.00028   0.00133   0.00581   0.00594   2.83381
   D53        0.69150  -0.00033  -0.00238  -0.01259  -0.01259   0.67891
   D54       -1.34158   0.00053  -0.00117   0.02410   0.02326  -1.31832
   D55       -0.34458  -0.00049  -0.00156  -0.00368  -0.00566  -0.35024
   D56        0.68503  -0.00021   0.00368  -0.00481  -0.00183   0.68320
   D57       -1.45134  -0.00083  -0.00004  -0.02321  -0.02035  -1.47169
   D58        2.79876   0.00003   0.00117   0.01348   0.01550   2.81426
   D59        0.71544   0.00100  -0.00108   0.01042   0.00892   0.72436
   D60        0.44529  -0.00016  -0.00678  -0.01305  -0.01695   0.42835
   D61        1.27302  -0.00154  -0.02144   0.00868  -0.01309   1.25993
   D62       -1.27589   0.00108   0.01975  -0.00652   0.01284  -1.26305
   D63       -1.54604  -0.00008   0.01405  -0.02998  -0.01303  -1.55906
   D64       -0.71831  -0.00146  -0.00061  -0.00826  -0.00916  -0.72748
   D65        2.86101   0.00121   0.00930   0.00169   0.01031   2.87132
   D66        2.59086   0.00005   0.00360  -0.02178  -0.01556   2.57531
   D67       -2.86460  -0.00133  -0.01107  -0.00005  -0.01170  -2.87629
   D68       -0.48615  -0.00068  -0.00195  -0.00908  -0.01066  -0.49681
   D69       -0.51121  -0.00139  -0.00645  -0.03980  -0.03988  -0.55108
   D70        0.48770   0.00110   0.00287   0.00653   0.00954   0.49724
   D71        2.52974  -0.00317  -0.01833  -0.07236  -0.08921   2.44054
   D72        0.49163   0.00223   0.00954   0.04454   0.04926   0.54089
   D73        2.55138  -0.00063  -0.00372  -0.02566  -0.02996   2.52143
   D74       -1.68976  -0.00490  -0.02492  -0.10455  -0.12871  -1.81846
   D75        2.55532   0.00050   0.00295   0.01235   0.00976   2.56508
   D76        0.00433  -0.00008   0.00026  -0.00309  -0.00245   0.00188
   D77        1.94431  -0.00514  -0.02767  -0.08972  -0.12013   1.82418
   D78       -1.92401   0.00546   0.02249   0.06101   0.08370  -1.84031
   D79        1.92754  -0.00569  -0.02298  -0.06470  -0.08807   1.83946
   D80       -2.41566  -0.01075  -0.05091  -0.15133  -0.20576  -2.62142
   D81       -0.00080  -0.00015  -0.00076  -0.00060  -0.00193  -0.00273
   D82       -1.92695   0.00516   0.03333   0.08474   0.12155  -1.80540
   D83        0.01303   0.00009   0.00539  -0.00189   0.00387   0.01690
   D84        2.42789   0.01070   0.05555   0.14884   0.20769   2.63559
         Item               Value     Threshold  Converged?
 Maximum Force            0.010747     0.000450     NO 
 RMS     Force            0.002542     0.000300     NO 
 Maximum Displacement     0.155625     0.001800     NO 
 RMS     Displacement     0.027844     0.001200     NO 
 Predicted change in Energy=-1.061250D-02
 GradGradGradGradGradGradGradGradGradGradGradGradGradGradGradGradGradGrad

                          Input orientation:                          
 ---------------------------------------------------------------------
 Center     Atomic      Atomic             Coordinates (Angstroms)
 Number     Number       Type             X           Y           Z
 ---------------------------------------------------------------------
      1          6           0       -0.714725    1.174023   -0.324693
      2          6           0       -1.125175    0.714868    0.900984
      3          6           0       -1.126471   -0.724318    0.894714
      4          6           0       -0.718474   -1.173728   -0.335524
      5          1           0       -0.639265    2.207189   -0.632508
      6          1           0       -1.345666    1.326207    1.764460
      7          1           0       -1.347544   -1.342745    1.752992
      8          1           0       -0.645047   -2.204421   -0.651990
      9          6           0       -0.645457    0.003828   -1.288479
     10          1           0       -1.518108    0.008127   -1.961956
     11          1           0        0.265607    0.006767   -1.881883
     12          6           0        1.695749    0.672012    0.108424
     13          1           0        1.780887    1.202471    1.045132
     14          1           0        2.071906    1.230843   -0.739160
     15          6           0        1.690372   -0.669738    0.104323
     16          1           0        2.075115   -1.225458   -0.737529
     17          1           0        1.774062   -1.201307    1.040338
 ---------------------------------------------------------------------
                    Distance matrix (angstroms):
                    1          2          3          4          5
     1  C    0.000000
     2  C    1.371705   0.000000
     3  C    2.293509   1.439199   0.000000
     4  C    2.347779   2.293720   1.371830   0.000000
     5  H    1.080684   2.194249   3.341184   3.394861   0.000000
     6  H    2.187648   1.080715   2.238114   3.324602   2.649639
     7  H    3.324357   2.238110   1.080725   2.187737   4.335240
     8  H    3.394976   3.341331   2.194258   1.080680   4.411657
     9  C    1.517576   2.351478   2.351149   1.516606   2.298943
    10  H    2.164571   2.974945   2.974965   2.163672   2.715819
    11  H    2.179077   3.190615   3.190902   2.180186   2.687301
    12  C    2.499998   2.930460   3.245445   3.071208   2.891027
    13  H    2.846983   2.950209   3.491114   3.714747   3.111442
    14  H    2.817858   3.630100   4.089232   3.705551   2.883587
    15  C    3.060719   3.237144   2.926141   2.500002   3.774499
    16  H    3.702858   4.085517   3.628432   2.822840   4.377438
    17  H    3.701292   3.478033   2.943096   2.847190   4.498934
                    6          7          8          9         10
     6  H    0.000000
     7  H    2.668977   0.000000
     8  H    4.335370   2.649514   0.000000
     9  C    3.399914   3.399519   2.298148   0.000000
    10  H    3.956418   3.956613   2.715440   1.102320   0.000000
    11  H    4.199159   4.199494   2.689104   1.087278   1.785512
    12  C    3.524291   4.003184   3.785687   2.806965   3.880218
    13  H    3.210620   4.094664   4.513568   3.573462   4.620867
    14  H    4.237571   4.952456   4.380693   3.031729   3.984779
    15  C    3.994669   3.521360   2.895072   2.801729   3.875997
    16  H    4.946988   4.234507   2.892225   3.035820   3.991517
    17  H    4.079875   3.205043   3.118060   3.567886   4.616804
                   11         12         13         14         15
    11  H    0.000000
    12  C    2.539523   0.000000
    13  H    3.506166   1.079841   0.000000
    14  H    2.463106   1.082675   1.808092   0.000000
[...]
 ! D37   D(7,3,4,15)           -99.4874         -DE/DX =   -0.0002              !
 ! D38   D(3,4,9,1)             16.8861         -DE/DX =   -0.0004              !
 ! D39   D(3,4,9,10)           -95.7925         -DE/DX =    0.0                 !
 ! D40   D(3,4,9,11)           142.9658         -DE/DX =   -0.0001              !
 ! D41   D(8,4,9,1)           -176.9699         -DE/DX =   -0.0003              !
 ! D42   D(8,4,9,10)            70.3515         -DE/DX =    0.0002              !
 ! D43   D(8,4,9,11)           -50.8902         -DE/DX =    0.0                 !
 ! D44   D(15,4,9,1)           -77.1624         -DE/DX =   -0.001               !
 ! D45   D(15,4,9,10)          170.1591         -DE/DX =   -0.0006              !
 ! D46   D(15,4,9,11)           48.9174         -DE/DX =   -0.0007              !
 ! D47   D(3,4,15,11)         -129.0209         -DE/DX =    0.0002              !
 ! D48   D(3,4,15,12)          -69.0817         -DE/DX =    0.0002              !
 ! D49   D(3,4,15,16)          169.2073         -DE/DX =    0.0002              !
 ! D50   D(3,4,15,17)           53.2052         -DE/DX =    0.0002              !
 ! D51   D(8,4,15,11)          102.3633         -DE/DX =    0.0                 !
 ! D52   D(8,4,15,12)          162.3025         -DE/DX =    0.0                 !
 ! D53   D(8,4,15,16)           40.5915         -DE/DX =    0.0                 !
 ! D54   D(8,4,15,17)          -75.4106         -DE/DX =    0.0                 !
 ! D55   D(9,4,15,11)          -20.9007         -DE/DX =   -0.0001              !
 ! D56   D(9,4,15,12)           39.0385         -DE/DX =    0.0                 !
 ! D57   D(9,4,15,16)          -82.6725         -DE/DX =   -0.0001              !
 ! D58   D(9,4,15,17)          161.3254         -DE/DX =    0.0                 !
 ! D59   D(1,9,11,12)           44.6367         -DE/DX =    0.0004              !
 ! D60   D(1,9,11,14)           27.6629         -DE/DX =    0.0003              !
 ! D61   D(1,9,11,15)           73.8026         -DE/DX =    0.0001              !
 ! D62   D(4,9,11,12)          -73.7963         -DE/DX =   -0.0001              !
 ! D63   D(4,9,11,14)          -90.7702         -DE/DX =   -0.0002              !
 ! D64   D(4,9,11,15)          -44.6304         -DE/DX =   -0.0004              !
 ! D65   D(10,9,11,12)         165.42           -DE/DX =    0.0002              !
 ! D66   D(10,9,11,14)         148.4462         -DE/DX =    0.0                 !
 ! D67   D(10,9,11,15)        -165.4141         -DE/DX =   -0.0002              !
 ! D68   D(9,11,12,1)          -29.8544         -DE/DX =    0.0004              !
 ! D69   D(9,11,12,13)         -33.4326         -DE/DX =    0.0003              !
 ! D70   D(9,11,15,4)           29.8508         -DE/DX =   -0.0003              !
 ! D71   D(9,11,15,16)         135.264          -DE/DX =   -0.0001              !
 ! D72   D(9,11,15,17)          33.3191         -DE/DX =   -0.0002              !
 ! D73   D(14,11,15,4)         140.8845         -DE/DX =    0.0                 !
 ! D74   D(14,11,15,16)       -113.7022         -DE/DX =    0.0002              !
 ! D75   D(14,11,15,17)        144.3528         -DE/DX =    0.0                 !
 ! D76   D(1,12,15,4)            0.0344         -DE/DX =    0.0                 !
 ! D77   D(1,12,15,16)          92.2727         -DE/DX =   -0.0002              !
 ! D78   D(1,12,15,17)         -96.6256         -DE/DX =   -0.0002              !
 ! D79   D(13,12,15,4)          96.6588         -DE/DX =    0.0002              !
 ! D80   D(13,12,15,16)       -171.103          -DE/DX =    0.0                 !
 ! D81   D(13,12,15,17)         -0.0013         -DE/DX =    0.0                 !
 ! D82   D(14,12,15,4)         -92.2548         -DE/DX =    0.0004              !
 ! D83   D(14,12,15,16)         -0.0166         -DE/DX =    0.0002              !
 ! D84   D(14,12,15,17)        171.0852         -DE/DX =    0.0002              !
 --------------------------------------------------------------------------------
 GradGradGradGradGradGradGradGradGradGradGradGradGradGradGradGradGradGrad

                          Input orientation:                          
 ---------------------------------------------------------------------
 Center     Atomic      Atomic             Coordinates (Angstroms)
 Number     Number       Type             X           Y           Z
 ---------------------------------------------------------------------
      1          6           0       -0.653496    1.177435   -0.317467
      2          6           0       -1.106836    0.721438    0.888728
      3          6           0       -1.106782   -0.727756    0.883482
      4          6           0       -0.653369   -1.174994   -0.325973
      5          1           0       -0.585553    2.210340   -0.628879
      6          1           0       -1.350454    1.332049    1.747196
      7          1           0       -1.350407   -1.344590    1.737487
      8          1           0       -0.585750   -2.205625   -0.644919
      9          6           0       -0.593036    0.004687   -1.282281
     10          1           0       -1.530514    0.006700   -1.867217
     11          1           0        0.244766    0.007339   -1.977342
     12          6           0        1.752737    0.672792    0.135721
     13          1           0        1.687266    1.238372    1.056395
     14          1           0        1.959826    1.248774   -0.760183
     15          6           0        1.752689   -0.673566    0.131687
     16          1           0        1.959483   -1.244134   -0.767742
     17          1           0        1.687196   -1.244639    1.048956
 ---------------------------------------------------------------------
                    Distance matrix (angstroms):
                    1          2          3          4          5
     1  C    0.000000
     2  C    1.366878   0.000000
     3  C    2.297280   1.449203   0.000000
     4  C    2.352445   2.297300   1.366890   0.000000
     5  H    1.080966   2.188994   3.345343   3.399535   0.000000
     6  H    2.184602   1.081278   2.246813   3.327044   2.646167
     7  H    3.327030   2.246818   1.081278   2.184603   4.338458
     8  H    3.399546   3.345341   2.188969   1.080972   4.415995
     9  C    1.519822   2.343288   2.343274   1.519807   2.300412
    10  H    2.131081   2.878469   2.878422   2.131013   2.698604
    11  H    2.220627   3.248249   3.248286   2.220716   2.713115
    12  C    2.500001   2.957456   3.270708   3.068685   2.901080
    13  H    2.714843   2.846460   3.420856   3.635086   2.991751
    14  H    2.651516   3.521563   4.001548   3.590540   2.724115
    15  C    3.068822   3.270478   2.957145   2.500000   3.789821
    16  H    3.590878   4.001209   3.520677   2.650837   4.293003
    17  H    3.634886   3.420197   2.846201   2.715424   4.462891
                    6          7          8          9         10
     6  H    0.000000
     7  H    2.676656   0.000000
     8  H    4.338447   2.646118   0.000000
     9  C    3.393125   3.393104   2.300384   0.000000
    10  H    3.853952   3.853869   2.698328   1.104997   0.000000
    11  H    4.262835   4.262891   2.713360   1.088591   1.778692
    12  C    3.558267   4.032988   3.789883   2.821302   3.903226
    13  H    3.116684   4.045124   4.463428   3.491584   4.518697
    14  H    4.153533   4.890964   4.292565   2.887463   3.866618
    15  C    4.032598   3.557818   2.901486   2.821659   3.903562
    16  H    4.890532   4.152304   2.723557   2.887847   3.866976
    17  H    4.044030   3.116263   2.993158   3.492126   4.519244
                   11         12         13         14         15
    11  H    0.000000
    12  C    2.679896   0.000000
    13  H    3.577682   1.082501   0.000000
    14  H    2.442144   1.085027   1.836941   0.000000
    15  C    2.680572   1.346364   2.124822   2.129255   0.000000
    16  H    2.443271   2.129224   3.092638   2.492919   1.085027
    17  H    3.578622   2.124815   2.483022   3.092639   1.082496
                   16         17
    16  H    0.000000
    17  H    1.836989   0.000000
 Stoichiometry    C7H10
 Framework group  C1[X(C7H10)]
 Deg. of freedom    45
 Full point group                 C1      NOp   1
 Largest Abelian subgroup         C1      NOp   1
 Largest concise Abelian subgroup C1      NOp   1
                         Standard orientation:                         
 ---------------------------------------------------------------------
 Center     Atomic      Atomic             Coordinates (Angstroms)
 Number     Number       Type             X           Y           Z
 ---------------------------------------------------------------------
      1          6           0       -0.600294   -1.176426    0.357730
      2          6           0       -1.138722   -0.724234   -0.814436
      3          6           0       -1.138748    0.724968   -0.813706
      4          6           0       -0.600298    1.176018    0.358903
      5          1           0       -0.509970   -2.208349    0.666703
      6          1           0       -1.442807   -1.337542   -1.651423
      7          1           0       -1.442907    1.339114   -1.650052
      8          1           0       -0.510407    2.207645    0.669008
      9          6           0       -0.471485   -0.000670    1.312122
     10          1           0       -1.364815   -0.000943    1.962490
     11          1           0        0.413797   -0.001077    1.945610
     12          6           0        1.767293   -0.672980   -0.267631
     13          1           0        1.636445   -1.241434   -1.179523
     14          1           0        2.037986   -1.246145    0.612988
     15          6           0        1.767110    0.673384   -0.267784
     16          1           0        2.037402    1.246774    0.612813
     17          1           0        1.636128    1.241588   -1.179806
 ---------------------------------------------------------------------
 Rotational constants (GHZ):           3.7336666           2.5670539           2.3590756

 **********************************************************************

            Population analysis using the SCF Density.

 **********************************************************************

 Orbital symmetries:
       Occupied  (A) (A) (A) (A) (A) (A) (A) (A) (A) (A) (A) (A)
                 (A) (A) (A) (A) (A) (A) (A) (A) (A) (A) (A) (A)
                 (A) (A)
       Virtual   (A) (A) (A) (A) (A) (A) (A) (A) (A) (A) (A) (A)
                 (A) (A) (A) (A) (A) (A) (A) (A) (A) (A) (A) (A)
                 (A) (A) (A) (A) (A) (A) (A) (A) (A) (A) (A) (A)
                 (A) (A) (A) (A) (A) (A) (A) (A) (A) (A) (A) (A)
                 (A) (A) (A) (A) (A) (A) (A) (A) (A)
 The electronic state is 1-A.
 Alpha  occ. eigenvalues --  -10.12363 -10.12357 -10.12278 -10.11455 -10.11336
 Alpha  occ. eigenvalues --  -10.09957 -10.09855  -0.85691  -0.73961  -0.70185
 Alpha  occ. eigenvalues --   -0.69949  -0.56287  -0.55129  -0.52420  -0.51392
 Alpha  occ. eigenvalues --   -0.45592  -0.43154  -0.40343  -0.39609  -0.37507
 Alpha  occ. eigenvalues --   -0.36224  -0.35517  -0.33572  -0.30267  -0.22634
 Alpha  occ. eigenvalues --   -0.21455
 Alpha virt. eigenvalues --   -0.00577   0.04097   0.10948   0.12245   0.15425
 Alpha virt. eigenvalues --    0.16690   0.17393   0.18085   0.19208   0.19604
 Alpha virt. eigenvalues --    0.20575   0.22752   0.22872   0.26318   0.28852
 Alpha virt. eigenvalues --    0.37270   0.37468   0.41085   0.46720   0.65039
 Alpha virt. eigenvalues --    0.67550   0.71484   0.72639   0.72866   0.74513
 Alpha virt. eigenvalues --    0.76756   0.77865   0.77875   0.79449   0.82676
 Alpha virt. eigenvalues --    0.86777   0.87684   0.88205   0.95472   0.97279
 Alpha virt. eigenvalues --    0.99230   0.99955   1.02484   1.02863   1.04126
 Alpha virt. eigenvalues --    1.06119   1.08664   1.10741   1.12571   1.13925
 Alpha virt. eigenvalues --    1.17079   1.31960   1.35766   1.36855   1.40952
 Alpha virt. eigenvalues --    1.42582   1.59527   1.68663   1.95667   2.05057
 Alpha virt. eigenvalues --    2.13387   2.42141
          Condensed to atoms (all electrons):
               1          2          3          4          5          6
     1  C    5.299259   0.499034  -0.109721  -0.125054   0.390918  -0.037881
     2  C    0.499034   5.179775   0.415125  -0.109716  -0.036420   0.389484
     3  C   -0.109721   0.415125   5.179807   0.499024   0.004200  -0.033533
     4  C   -0.125054  -0.109716   0.499024   5.299282   0.003149   0.003825
     5  H    0.390918  -0.036420   0.004200   0.003149   0.500004  -0.002145
     6  H   -0.037881   0.389484  -0.033533   0.003825  -0.002145   0.503213
     7  H    0.003825  -0.033531   0.389483  -0.037882  -0.000051  -0.001191
     8  H    0.003150   0.004200  -0.036426   0.390914  -0.000037  -0.000051
     9  C    0.329077  -0.125439  -0.125442   0.329065  -0.032552   0.004333
    10  H   -0.038268   0.000939   0.000938  -0.038271   0.000173  -0.000130
    11  H   -0.032327   0.003667   0.003667  -0.032316  -0.000869  -0.000057
    12  C    0.003405  -0.009639  -0.009427  -0.010622  -0.003234   0.000073
    13  H   -0.001616  -0.000426  -0.000008   0.000260  -0.000032   0.000172
    14  H   -0.001438   0.000020   0.000077   0.000322   0.000153  -0.000002
    15  C   -0.010617  -0.009434  -0.009641   0.003404   0.000016  -0.000080
    16  H    0.000323   0.000077   0.000018  -0.001438  -0.000004  -0.000000
    17  H    0.000260  -0.000008  -0.000425  -0.001619  -0.000002  -0.000002
               7          8          9         10         11         12
     1  C    0.003825   0.003150   0.329077  -0.038268  -0.032327   0.003405
     2  C   -0.033531   0.004200  -0.125439   0.000939   0.003667  -0.009639
     3  C    0.389483  -0.036426  -0.125442   0.000938   0.003667  -0.009427
     4  C   -0.037882   0.390914   0.329065  -0.038271  -0.032316  -0.010622
     5  H   -0.000051  -0.000037  -0.032552   0.000173  -0.000869  -0.003234
     6  H   -0.001191  -0.000051   0.004333  -0.000130  -0.000057   0.000073
     7  H    0.503209  -0.002145   0.004333  -0.000130  -0.000057  -0.000080
     8  H   -0.002145   0.500027  -0.032557   0.000174  -0.000869   0.000016
     9  C    0.004333  -0.032557   5.409023   0.339794   0.365384  -0.017992
    10  H   -0.000130   0.000174   0.339794   0.526954  -0.024119   0.001324
    11  H   -0.000057  -0.000869   0.365384  -0.024119   0.513926  -0.001056
    12  C   -0.000080   0.000016  -0.017992   0.001324  -0.001056   5.204486
    13  H   -0.000002  -0.000002   0.000295  -0.000007   0.000041   0.384639
    14  H   -0.000000  -0.000004  -0.000759   0.000009   0.001225   0.380896
    15  C    0.000073  -0.003234  -0.017966   0.001323  -0.001058   0.541309
    16  H   -0.000002   0.000153  -0.000755   0.000009   0.001221  -0.049112
    17  H    0.000173  -0.000032   0.000295  -0.000007   0.000041  -0.044960
              13         14         15         16         17
     1  C   -0.001616  -0.001438  -0.010617   0.000323   0.000260
     2  C   -0.000426   0.000020  -0.009434   0.000077  -0.000008
     3  C   -0.000008   0.000077  -0.009641   0.000018  -0.000425
     4  C    0.000260   0.000322   0.003404  -0.001438  -0.001619
     5  H   -0.000032   0.000153   0.000016  -0.000004  -0.000002
     6  H    0.000172  -0.000002  -0.000080  -0.000000  -0.000002
     7  H   -0.000002  -0.000000   0.000073  -0.000002   0.000173
     8  H   -0.000002  -0.000004  -0.003234   0.000153  -0.000032
     9  C    0.000295  -0.000759  -0.017966  -0.000755   0.000295
    10  H   -0.000007   0.000009   0.001323   0.000009  -0.000007
    11  H    0.000041   0.001225  -0.001058   0.001221   0.000041
    12  C    0.384639   0.380896   0.541309  -0.049112  -0.044960
    13  H    0.512436  -0.032752  -0.044958   0.003301  -0.004995
    14  H   -0.032752   0.529950  -0.049108  -0.005214   0.003300
    15  C   -0.044958  -0.049108   5.204421   0.380896   0.384646
    16  H    0.003301  -0.005214   0.380896   0.529930  -0.032745
    17  H   -0.004995   0.003300   0.384646  -0.032745   0.512423
 Mulliken charges:
               1
     1  C   -0.172331
     2  C   -0.167708
     3  C   -0.167717
     4  C   -0.172328
     5  H    0.176732
     6  H    0.173972
     7  H    0.173977
     8  H    0.176724
     9  C   -0.428136
    10  H    0.229296
    11  H    0.203557
    12  C   -0.370025
    13  H    0.183655
    14  H    0.173324
    15  C   -0.369992
    16  H    0.173342
    17  H    0.183657
 Sum of Mulliken charges =  -0.00000
 Mulliken charges with hydrogens summed into heavy atoms:
               1
     1  C    0.004402
     2  C    0.006264
     3  C    0.006260
     4  C    0.004395
     9  C    0.004717
    12  C   -0.013046
    15  C   -0.012993
 Electronic spatial extent (au):  <R**2>=            685.3398
 Charge=             -0.0000 electrons
 Dipole moment (field-independent basis, Debye):
    X=             -0.4346    Y=             -0.0001    Z=              0.5058  Tot=              0.6669
 Quadrupole moment (field-independent basis, Debye-Ang):
   XX=            -48.1228   YY=            -40.3417   ZZ=            -40.1783
   XY=             -0.0019   XZ=              1.7249   YZ=              0.0000
 Traceless Quadrupole moment (field-independent basis, Debye-Ang):
   XX=             -5.2419   YY=              2.5393   ZZ=              2.7027
   XY=             -0.0019   XZ=              1.7249   YZ=              0.0000
 Octapole moment (field-independent basis, Debye-Ang**2):
  XXX=             -4.5417  YYY=             -0.0002  ZZZ=             -0.9206  XYY=              0.4670
  XXY=             -0.0001  XXZ=              1.9083  XZZ=             -2.1541  YZZ=              0.0009
  YYZ=             -0.0866  XYZ=              0.0003
 Hexadecapole moment (field-independent basis, Debye-Ang**3):
 XXXX=           -492.8685 YYYY=           -252.0135 ZZZZ=           -214.2280 XXXY=             -0.0100
 XXXZ=             10.0027 YYYX=             -0.0100 YYYZ=              0.0049 ZZZX=              4.7687
 ZZZY=              0.0019 XXYY=           -118.7058 XXZZ=           -102.3430 YYZZ=            -75.6043
 XXYZ=             -0.0046 YYXZ=              3.6710 ZZXY=             -0.0001
 N-N= 2.894500570285D+02 E-N=-1.206309935123D+03  KE= 2.688230255130D+02
 1\1\GINC-TACHAS\FOpt\RB3LYP\3-21G\C7H10\LEOS\20-Oct-2019\0\\# opt=modr
 edundant b3lyp/3-21g geom=connectivity\\Title Card Required\\0,1\C,-0.
 6534961456,1.1774347213,-0.3174668698\C,-1.1068358058,0.7214379931,0.8
 887280924\C,-1.1067818764,-0.7277555486,0.8834819813\C,-0.6533693177,-
 1.1749944072,-0.3259730712\H,-0.5855525073,2.2103400282,-0.6288790023\
 H,-1.3504537898,1.3320487595,1.7471955373\H,-1.3504069793,-1.344589759
 ,1.7374869249\H,-0.585750153,-2.205625498,-0.6449191508\C,-0.593036438
 1,0.0046872134,-1.2822807524\H,-1.5305136537,0.0066997224,-1.867216601
 7\H,0.2447655801,0.00733913,-1.9773421813\C,1.7527374317,0.6727923255,
 0.1357205871\H,1.6872656551,1.2383717662,1.0563946857\H,1.9598256532,1
 .248773541,-0.7601834261\C,1.7526886588,-0.6735656674,0.1316869233\H,1
 .9594827409,-1.2441340351,-0.7677416479\H,1.687196047,-1.244639085,1.0
 489559016\\Version=ES64L-G16RevB.01\State=1-A\HF=-271.1825727\RMSD=7.6
 69e-09\RMSF=2.271e-03\Dipole=-0.1847687,0.0006027,-0.1862731\Quadrupol
 e=-4.0497577,1.8878804,2.1618773,0.0035262,-0.8487946,-0.0010301\PG=C0
 1 [X(C7H10)]\\@


 IT IS BY EATING THE LIGHT OF A STAR THAT WE EXIST, 
 IN THE FINAL ANALYSIS, 
 JUST AS IT IS BY PERCEIVING THE LIGHT OF STARS
 THAT WE DEFINE THE WORLD AROUND US.

                                    -- GILBERT GROSVENOR
 Job cpu time:       0 days  0 hours  4 minutes 41.0 seconds.
 Elapsed time:       0 days  0 hours  2 minutes 21.2 seconds.
 File lengths (MBytes):  RWF=     10 Int=      0 D2E=      0 Chk=      2 Scr=      1
 Normal termination of Gaussian 16 at Sun Oct 20 19:22:35 2019.
