 Entering Gaussian System, Link 0=g16
 Input=/home/leos/jsmolpage/PDB/Ciclo/C2.6.com
 Output=/home/leos/jsmolpage/PDB/Ciclo/C2.6.log
 Initial command:
 /opt/g16/l1.exe "/tmp/Gau-6643.inp" -scrdir="/tmp/"
 Entering Link 1 = /opt/g16/l1.exe PID=      6646.
  
 Copyright (c) 1988-2017, Gaussian, Inc.  All Rights Reserved.
  
 This is part of the Gaussian(R) 16 program.  It is based on
 the Gaussian(R) 09 system (copyright 2009, Gaussian, Inc.),
 the Gaussian(R) 03 system (copyright 2003, Gaussian, Inc.),
 the Gaussian(R) 98 system (copyright 1998, Gaussian, Inc.),
 the Gaussian(R) 94 system (copyright 1995, Gaussian, Inc.),
 the Gaussian 92(TM) system (copyright 1992, Gaussian, Inc.),
 the Gaussian 90(TM) system (copyright 1990, Gaussian, Inc.),
 the Gaussian 88(TM) system (copyright 1988, Gaussian, Inc.),
 the Gaussian 86(TM) system (copyright 1986, Carnegie Mellon
 University), and the Gaussian 82(TM) system (copyright 1983,
 Carnegie Mellon University). Gaussian is a federally registered
 trademark of Gaussian, Inc.
  
 This software contains proprietary and confidential information,
 including trade secrets, belonging to Gaussian, Inc.
  
 This software is provided under written license and may be
 used, copied, transmitted, or stored only in accord with that
 written license.
  
 The following legend is applicable only to US Government
 contracts under FAR:
  
                    RESTRICTED RIGHTS LEGEND
  
 Use, reproduction and disclosure by the US Government is
 subject to restrictions as set forth in subparagraphs (a)
 and (c) of the Commercial Computer Software - Restricted
 Rights clause in FAR 52.227-19.
  
 Gaussian, Inc.
 340 Quinnipiac St., Bldg. 40, Wallingford CT 06492
  
  
 ---------------------------------------------------------------
 Warning -- This program may not be used in any manner that
 competes with the business of Gaussian, Inc. or will provide
 assistance to any competitor of Gaussian, Inc.  The licensee
 of this program is prohibited from giving any competitor of
 Gaussian, Inc. access to this program.  By using this program,
 the user acknowledges that Gaussian, Inc. is engaged in the
 business of creating and licensing software in the field of
 computational chemistry and represents and warrants to the
 licensee that it is not a competitor of Gaussian, Inc. and that
 it will not use this program in any manner prohibited above.
 ---------------------------------------------------------------
  

 Cite this work as:
 Gaussian 16, Revision B.01,
 M. J. Frisch, G. W. Trucks, H. B. Schlegel, G. E. Scuseria, 
 M. A. Robb, J. R. Cheeseman, G. Scalmani, V. Barone, 
 G. A. Petersson, H. Nakatsuji, X. Li, M. Caricato, A. V. Marenich, 
 J. Bloino, B. G. Janesko, R. Gomperts, B. Mennucci, H. P. Hratchian, 
 J. V. Ortiz, A. F. Izmaylov, J. L. Sonnenberg, D. Williams-Young, 
 F. Ding, F. Lipparini, F. Egidi, J. Goings, B. Peng, A. Petrone, 
 T. Henderson, D. Ranasinghe, V. G. Zakrzewski, J. Gao, N. Rega, 
 G. Zheng, W. Liang, M. Hada, M. Ehara, K. Toyota, R. Fukuda, 
 J. Hasegawa, M. Ishida, T. Nakajima, Y. Honda, O. Kitao, H. Nakai, 
 T. Vreven, K. Throssell, J. A. Montgomery, Jr., J. E. Peralta, 
 F. Ogliaro, M. J. Bearpark, J. J. Heyd, E. N. Brothers, K. N. Kudin, 
 V. N. Staroverov, T. A. Keith, R. Kobayashi, J. Normand, 
 K. Raghavachari, A. P. Rendell, J. C. Burant, S. S. Iyengar, 
 J. Tomasi, M. Cossi, J. M. Millam, M. Klene, C. Adamo, R. Cammi, 
 J. W. Ochterski, R. L. Martin, K. Morokuma, O. Farkas, 
 J. B. Foresman, and D. J. Fox, Gaussian, Inc., Wallingford CT, 2016.
 
 ******************************************
 Gaussian 16:  ES64L-G16RevB.01 20-Dec-2017
                20-Oct-2019 
 ******************************************
 %nprocshared=2
 Will use up to    2 processors via shared memory.
 %mem=6GB
 %chk=C3.chk
 ------------------------------------------------
 # opt=modredundant b3lyp/3-21g geom=connectivity
 ------------------------------------------------
 1/18=120,19=15,26=3,38=1,57=2/1,3;
 2/9=110,12=2,17=6,18=5,40=1/2;
 3/5=5,11=2,25=1,30=1,71=1,74=-5/1,2,3;
 4//1;
 5/5=2,38=5/2;
 6/7=2,8=2,9=2,10=2,28=1/1;
 7//1,2,3,16;
 1/18=20,19=15,26=3/3(2);
 2/9=110/2;
 99//99;
 2/9=110/2;
 3/5=5,11=2,25=1,30=1,71=1,74=-5/1,2,3;
 4/5=5,16=3,69=1/1;
 5/5=2,38=5/2;
 7//1,2,3,16;
 1/18=20,19=15,26=3/3(-5);
 2/9=110/2;
 6/7=2,8=2,9=2,10=2,19=2,28=1/1;
 99/9=1/99;
 -------------------
 Title Card Required
 -------------------
 Symbolic Z-matrix:
 Charge =  0 Multiplicity = 1
 C                    -0.79369   1.18537  -0.33569 
 C                    -1.11924   0.73143   0.89728 
 C                    -1.11909  -0.73982   0.89047 
 C                    -0.79293  -1.18231  -0.34652 
 H                    -0.72426   2.21635  -0.65178 
 H                    -1.32329   1.33641   1.76992 
 H                    -1.32313  -1.35292   1.75743 
 H                    -0.7233   -2.21038  -0.67191 
 C                    -0.66368   0.00577  -1.28383 
 H                    -1.50946   0.00868  -1.99091 
 H                     0.26287   0.00925  -1.8612 
 C                     1.72386   0.71936   0.11681 
 H                     1.84769   1.23853   1.0734 
 H                     2.2045    1.24206  -0.73138 
 C                     1.72348  -0.72017   0.11619 
 H                     2.20406  -1.24443  -0.73004 
 H                     1.84698  -1.23871   1.0746 
 
 Add virtual bond connecting atoms C12        and C1         Dist= 4.91D+00.
 Add virtual bond connecting atoms C12        and H11        Dist= 4.84D+00.
 Add virtual bond connecting atoms H14        and H11        Dist= 4.84D+00.
 Add virtual bond connecting atoms C15        and C4         Dist= 4.91D+00.
 Add virtual bond connecting atoms C15        and H11        Dist= 4.85D+00.
 The following ModRedundant input section has been read:
 B       4      15 F                                                           
 B       1      12 F                                                           
 

 GradGradGradGradGradGradGradGradGradGradGradGradGradGradGradGradGradGrad
 Berny optimization.
 Initialization pass.
                           ----------------------------
                           !    Initial Parameters    !
                           ! (Angstroms and Degrees)  !
 --------------------------                            --------------------------
 ! Name  Definition              Value          Derivative Info.                !
 --------------------------------------------------------------------------------
 ! R1    R(1,2)                  1.3536         estimate D2E/DX2                !
 ! R2    R(1,5)                  1.0806         estimate D2E/DX2                !
 ! R3    R(1,9)                  1.519          estimate D2E/DX2                !
 ! R4    R(1,12)                 2.6            Frozen                          !
 ! R5    R(2,3)                  1.4713         estimate D2E/DX2                !
 ! R6    R(2,6)                  1.0813         estimate D2E/DX2                !
 ! R7    R(3,4)                  1.3536         estimate D2E/DX2                !
 ! R8    R(3,7)                  1.0813         estimate D2E/DX2                !
 ! R9    R(4,8)                  1.0806         estimate D2E/DX2                !
 ! R10   R(4,9)                  1.5188         estimate D2E/DX2                !
 ! R11   R(4,15)                 2.6            Frozen                          !
 ! R12   R(9,10)                 1.1024         estimate D2E/DX2                !
 ! R13   R(9,11)                 1.0917         estimate D2E/DX2                !
 ! R14   R(11,12)                2.5596         estimate D2E/DX2                !
 ! R15   R(11,14)                2.5625         estimate D2E/DX2                !
 ! R16   R(11,15)                2.5643         estimate D2E/DX2                !
 ! R17   R(12,13)                1.0954         estimate D2E/DX2                !
 ! R18   R(12,14)                1.1062         estimate D2E/DX2                !
 ! R19   R(12,15)                1.4395         estimate D2E/DX2                !
 ! R20   R(15,16)                1.1054         estimate D2E/DX2                !
 ! R21   R(15,17)                1.0967         estimate D2E/DX2                !
 ! A1    A(2,1,5)              127.0035         estimate D2E/DX2                !
 ! A2    A(2,1,9)              109.191          estimate D2E/DX2                !
 ! A3    A(2,1,12)              90.816          estimate D2E/DX2                !
 ! A4    A(5,1,9)              123.5619         estimate D2E/DX2                !
 ! A5    A(5,1,12)              99.1894         estimate D2E/DX2                !
 ! A6    A(9,1,12)              83.4866         estimate D2E/DX2                !
 ! A7    A(1,2,3)              109.3362         estimate D2E/DX2                !
 ! A8    A(1,2,6)              126.362          estimate D2E/DX2                !
 ! A9    A(3,2,6)              124.281          estimate D2E/DX2                !
 ! A10   A(2,3,4)              109.3381         estimate D2E/DX2                !
 ! A11   A(2,3,7)              124.2827         estimate D2E/DX2                !
 ! A12   A(4,3,7)              126.358          estimate D2E/DX2                !
 ! A13   A(3,4,8)              126.9922         estimate D2E/DX2                !
 ! A14   A(3,4,9)              109.1931         estimate D2E/DX2                !
 ! A15   A(3,4,15)              90.7143         estimate D2E/DX2                !
 ! A16   A(8,4,9)              123.5673         estimate D2E/DX2                !
 ! A17   A(8,4,15)              99.2262         estimate D2E/DX2                !
 ! A18   A(9,4,15)              83.5936         estimate D2E/DX2                !
 ! A19   A(1,9,4)              102.4141         estimate D2E/DX2                !
 ! A20   A(1,9,10)             109.4285         estimate D2E/DX2                !
 ! A21   A(1,9,11)             113.5958         estimate D2E/DX2                !
 ! A22   A(4,9,10)             109.4265         estimate D2E/DX2                !
 ! A23   A(4,9,11)             113.6469         estimate D2E/DX2                !
 ! A24   A(10,9,11)            108.1745         estimate D2E/DX2                !
 ! A25   A(9,11,12)             94.394          estimate D2E/DX2                !
 ! A26   A(9,11,14)            114.2943         estimate D2E/DX2                !
 ! A27   A(9,11,15)             94.2832         estimate D2E/DX2                !
 ! A28   A(14,11,15)            50.5988         estimate D2E/DX2                !
 ! A29   A(1,12,11)             50.3966         estimate D2E/DX2                !
 ! A30   A(1,12,13)            100.1654         estimate D2E/DX2                !
 ! A31   A(1,12,14)            101.688          estimate D2E/DX2                !
 ! A32   A(1,12,15)            100.3058         estimate D2E/DX2                !
 ! A33   A(11,12,13)           150.5602         estimate D2E/DX2                !
 ! A34   A(13,12,14)           113.3615         estimate D2E/DX2                !
 ! A35   A(13,12,15)           118.3171         estimate D2E/DX2                !
 ! A36   A(14,12,15)           118.184          estimate D2E/DX2                !
 ! A37   A(4,15,11)             50.36           estimate D2E/DX2                !
 ! A38   A(4,15,12)            100.258          estimate D2E/DX2                !
 ! A39   A(4,15,16)            101.5509         estimate D2E/DX2                !
 ! A40   A(4,15,17)            100.3979         estimate D2E/DX2                !
 ! A41   A(11,15,16)            78.0072         estimate D2E/DX2                !
 ! A42   A(11,15,17)           150.7572         estimate D2E/DX2                !
 ! A43   A(12,15,16)           118.3258         estimate D2E/DX2                !
 ! A44   A(12,15,17)           118.1921         estimate D2E/DX2                !
 ! A45   A(16,15,17)           113.3166         estimate D2E/DX2                !
 ! D1    D(5,1,2,3)            179.0338         estimate D2E/DX2                !
 ! D2    D(5,1,2,6)             -2.5772         estimate D2E/DX2                !
 ! D3    D(9,1,2,3)              4.5857         estimate D2E/DX2                !
 ! D4    D(9,1,2,6)           -177.0253         estimate D2E/DX2                !
 ! D5    D(12,1,2,3)           -78.8012         estimate D2E/DX2                !
 ! D6    D(12,1,2,6)            99.5878         estimate D2E/DX2                !
 ! D7    D(2,1,9,4)             -6.9373         estimate D2E/DX2                !
 ! D8    D(2,1,9,10)           109.0877         estimate D2E/DX2                !
 ! D9    D(2,1,9,11)          -129.9156         estimate D2E/DX2                !
 ! D10   D(5,1,9,4)            178.3828         estimate D2E/DX2                !
 ! D11   D(5,1,9,10)           -65.5922         estimate D2E/DX2                !
 ! D12   D(5,1,9,11)            55.4045         estimate D2E/DX2                !
 ! D13   D(12,1,9,4)            81.6553         estimate D2E/DX2                !
 ! D14   D(12,1,9,10)         -162.3197         estimate D2E/DX2                !
 ! D15   D(12,1,9,11)          -41.323          estimate D2E/DX2                !
 ! D16   D(2,1,12,11)          128.7951         estimate D2E/DX2                !
 ! D17   D(2,1,12,13)          -51.5635         estimate D2E/DX2                !
 ! D18   D(2,1,12,14)         -168.2097         estimate D2E/DX2                !
 ! D19   D(2,1,12,15)           69.9313         estimate D2E/DX2                !
 ! D20   D(5,1,12,11)         -103.4667         estimate D2E/DX2                !
 ! D21   D(5,1,12,13)           76.1747         estimate D2E/DX2                !
 ! D22   D(5,1,12,14)          -40.4715         estimate D2E/DX2                !
 ! D23   D(5,1,12,15)         -162.3305         estimate D2E/DX2                !
 ! D24   D(9,1,12,11)           19.5712         estimate D2E/DX2                !
 ! D25   D(9,1,12,13)         -160.7874         estimate D2E/DX2                !
 ! D26   D(9,1,12,14)           82.5664         estimate D2E/DX2                !
 ! D27   D(9,1,12,15)          -39.2926         estimate D2E/DX2                !
 ! D28   D(1,2,3,4)              0.024          estimate D2E/DX2                !
 ! D29   D(1,2,3,7)            178.4371         estimate D2E/DX2                !
 ! D30   D(6,2,3,4)           -178.4059         estimate D2E/DX2                !
 ! D31   D(6,2,3,7)              0.0072         estimate D2E/DX2                !
 ! D32   D(2,3,4,8)           -179.0282         estimate D2E/DX2                !
 ! D33   D(2,3,4,9)             -4.6237         estimate D2E/DX2                !
 ! D34   D(2,3,4,15)            78.841          estimate D2E/DX2                !
 ! D35   D(7,3,4,8)              2.6            estimate D2E/DX2                !
 ! D36   D(7,3,4,9)            177.0045         estimate D2E/DX2                !
 ! D37   D(7,3,4,15)           -99.5308         estimate D2E/DX2                !
 ! D38   D(3,4,9,1)              6.9522         estimate D2E/DX2                !
 ! D39   D(3,4,9,10)          -109.0743         estimate D2E/DX2                !
 ! D40   D(3,4,9,11)           129.8961         estimate D2E/DX2                !
 ! D41   D(8,4,9,1)           -178.4109         estimate D2E/DX2                !
 ! D42   D(8,4,9,10)            65.5627         estimate D2E/DX2                !
 ! D43   D(8,4,9,11)           -55.4669         estimate D2E/DX2                !
 ! D44   D(15,4,9,1)           -81.5694         estimate D2E/DX2                !
 ! D45   D(15,4,9,10)          162.4042         estimate D2E/DX2                !
 ! D46   D(15,4,9,11)           41.3746         estimate D2E/DX2                !
 ! D47   D(3,4,15,11)         -128.7923         estimate D2E/DX2                !
 ! D48   D(3,4,15,12)          -70.4387         estimate D2E/DX2                !
 ! D49   D(3,4,15,16)          167.6135         estimate D2E/DX2                !
 ! D50   D(3,4,15,17)           50.9826         estimate D2E/DX2                !
 ! D51   D(8,4,15,11)          103.4978         estimate D2E/DX2                !
 ! D52   D(8,4,15,12)          161.8514         estimate D2E/DX2                !
 ! D53   D(8,4,15,16)           39.9035         estimate D2E/DX2                !
 ! D54   D(8,4,15,17)          -76.7274         estimate D2E/DX2                !
 ! D55   D(9,4,15,11)          -19.5573         estimate D2E/DX2                !
 ! D56   D(9,4,15,12)           38.7963         estimate D2E/DX2                !
 ! D57   D(9,4,15,16)          -83.1515         estimate D2E/DX2                !
 ! D58   D(9,4,15,17)          160.2176         estimate D2E/DX2                !
 ! D59   D(1,9,11,12)           41.9417         estimate D2E/DX2                !
 ! D60   D(1,9,11,14)           26.32           estimate D2E/DX2                !
 ! D61   D(1,9,11,15)           74.6713         estimate D2E/DX2                !
 ! D62   D(4,9,11,12)          -74.6323         estimate D2E/DX2                !
 ! D63   D(4,9,11,14)          -90.254          estimate D2E/DX2                !
 ! D64   D(4,9,11,15)          -41.9027         estimate D2E/DX2                !
 ! D65   D(10,9,11,12)         163.6392         estimate D2E/DX2                !
 ! D66   D(10,9,11,14)         148.0175         estimate D2E/DX2                !
 ! D67   D(10,9,11,15)        -163.6312         estimate D2E/DX2                !
 ! D68   D(9,11,12,1)          -27.6736         estimate D2E/DX2                !
 ! D69   D(9,11,12,13)         -28.3918         estimate D2E/DX2                !
 ! D70   D(9,11,15,4)           27.6514         estimate D2E/DX2                !
 ! D71   D(9,11,15,16)         143.8709         estimate D2E/DX2                !
 ! D72   D(9,11,15,17)          27.1981         estimate D2E/DX2                !
 ! D73   D(14,11,15,4)         145.8419         estimate D2E/DX2                !
 ! D74   D(14,11,15,16)        -97.9385         estimate D2E/DX2                !
 ! D75   D(14,11,15,17)        145.3886         estimate D2E/DX2                !
 ! D76   D(1,12,15,4)            0.2219         estimate D2E/DX2                !
 ! D77   D(1,12,15,16)         109.413          estimate D2E/DX2                !
 ! D78   D(1,12,15,17)        -107.5428         estimate D2E/DX2                !
 ! D79   D(13,12,15,4)         107.7844         estimate D2E/DX2                !
 ! D80   D(13,12,15,16)       -143.0245         estimate D2E/DX2                !
 ! D81   D(13,12,15,17)          0.0197         estimate D2E/DX2                !
 ! D82   D(14,12,15,4)        -109.1098         estimate D2E/DX2                !
 ! D83   D(14,12,15,16)          0.0813         estimate D2E/DX2                !
 ! D84   D(14,12,15,17)        143.1256         estimate D2E/DX2                !
 --------------------------------------------------------------------------------
 Trust Radius=3.00D-01 FncErr=1.00D-07 GrdErr=1.00D-06 EigMax=2.50D+02 EigMin=1.00D-04
 Number of steps in this run=    102 maximum allowed number of steps=    102.
 GradGradGradGradGradGradGradGradGradGradGradGradGradGradGradGradGradGrad

                          Input orientation:                          
 ---------------------------------------------------------------------
 Center     Atomic      Atomic             Coordinates (Angstroms)
 Number     Number       Type             X           Y           Z
 ---------------------------------------------------------------------
      1          6           0       -0.793692    1.185372   -0.335690
      2          6           0       -1.119238    0.731433    0.897277
      3          6           0       -1.119089   -0.739821    0.890465
      4          6           0       -0.792932   -1.182308   -0.346523
      5          1           0       -0.724258    2.216348   -0.651778
      6          1           0       -1.323294    1.336406    1.769924
      7          1           0       -1.323127   -1.352915    1.757429
      8          1           0       -0.723300   -2.210380   -0.671910
      9          6           0       -0.663676    0.005770   -1.283827
     10          1           0       -1.509459    0.008682   -1.990906
     11          1           0        0.262871    0.009247   -1.861203
     12          6           0        1.723861    0.719361    0.116812
     13          1           0        1.847686    1.238528    1.073403
     14          1           0        2.204501    1.242055   -0.731379
     15          6           0        1.723478   -0.720165    0.116194
     16          1           0        2.204064   -1.244430   -0.730043
     17          1           0        1.846983   -1.238710    1.074604
 ---------------------------------------------------------------------
                    Distance matrix (angstroms):
                    1          2          3          4          5
     1  C    0.000000
     2  C    1.353606   0.000000
     3  C    2.305582   1.471270   0.000000
     4  C    2.367705   2.305628   1.353629   0.000000
     5  H    1.080576   2.181869   3.357580   3.413028   0.000000
     6  H    2.176442   1.081270   2.264038   3.332349   2.645332
     7  H    3.332319   2.264054   1.081269   2.176425   4.347708
     8  H    3.413082   3.357585   2.181790   1.080582   4.426774
     9  C    1.518989   2.343360   2.343257   1.518807   2.299959
    10  H    2.153291   3.002706   3.002490   2.153106   2.698813
    11  H    2.196995   3.168752   3.169005   2.197448   2.703410
    12  C    2.600000   2.948302   3.287874   3.188302   2.970689
    13  H    2.994202   3.015096   3.570586   3.853505   3.247657
    14  H    3.024722   3.736375   4.195767   3.874307   3.087590
    15  C    3.189265   3.286071   2.946195   2.600000   3.899269
    16  H    3.878916   4.194823   3.731491   3.022074   4.534113
    17  H    3.852047   3.565302   3.013367   2.998655   4.639946
                    6          7          8          9         10
     6  H    0.000000
     7  H    2.689350   0.000000
     8  H    4.347670   2.645133   0.000000
     9  C    3.395745   3.395606   2.299852   0.000000
    10  H    3.992662   3.992328   2.698524   1.102415   0.000000
    11  H    4.178798   4.179159   2.704384   1.091725   1.777070
    12  C    3.521176   4.033620   3.897956   2.858555   3.924526
    13  H    3.248051   4.151810   4.642311   3.658301   4.708814
    14  H    4.325593   5.037082   4.527125   3.171756   4.111097
    15  C    4.030773   3.517929   2.971291   2.861039   3.927208
    16  H    5.035157   4.317449   3.083164   3.177044   4.117076
    17  H    4.143109   3.244825   3.255888   3.662559   4.713708
                   11         12         13         14         15
    11  H    0.000000
    12  C    2.559550   0.000000
    13  H    3.554530   1.095415   0.000000
    14  H    2.562469   1.106188   1.839719   0.000000
    15  C    2.564276   1.439526   2.183611   2.190906   0.000000
    16  H    2.572831   2.191856   3.089418   2.486485   1.105411
    17  H    3.561709   2.183246   2.477238   3.089270   1.096674
                   16         17
    16  H    0.000000
    17  H    1.839644   0.000000
 Stoichiometry    C7H10
 Framework group  C1[X(C7H10)]
 Deg. of freedom    45
 Full point group                 C1      NOp   1
 Largest Abelian subgroup         C1      NOp   1
 Largest concise Abelian subgroup C1      NOp   1
                         Standard orientation:                         
 ---------------------------------------------------------------------
 Center     Atomic      Atomic             Coordinates (Angstroms)
 Number     Number       Type             X           Y           Z
 ---------------------------------------------------------------------
      1          6           0       -0.713600   -1.185248    0.351645
      2          6           0       -1.085981   -0.732078   -0.868280
      3          6           0       -1.085839    0.739180   -0.862325
      4          6           0       -0.712857    1.182438    0.361080
      5          1           0       -0.631983   -2.216029    0.665451
      6          1           0       -1.323036   -1.337591   -1.732168
      7          1           0       -1.322880    1.351737   -1.721235
      8          1           0       -0.631061    2.210710    0.682986
      9          6           0       -0.547758   -0.005074    1.293460
     10          1           0       -1.365979   -0.007709    2.032260
     11          1           0        0.400120   -0.008068    1.835108
     12          6           0        1.784795   -0.719099   -0.196741
     13          1           0        1.872168   -1.238803   -1.157057
     14          1           0        2.297505   -1.241223    0.632817
     15          6           0        1.784174    0.720427   -0.196936
     16          1           0        2.296567    1.245260    0.630069
     17          1           0        1.870970    1.238434   -1.159655
 ---------------------------------------------------------------------
 Rotational constants (GHZ):           3.6412106           2.4714188           2.2635894
 Standard basis: 3-21G (6D, 7F)
 There are    83 symmetry adapted cartesian basis functions of A   symmetry.
 There are    83 symmetry adapted basis functions of A   symmetry.
    83 basis functions,   135 primitive gaussians,    83 cartesian basis functions
    26 alpha electrons       26 beta electrons
       nuclear repulsion energy       285.2935678913 Hartrees.
 NAtoms=   17 NActive=   17 NUniq=   17 SFac= 1.00D+00 NAtFMM=   60 NAOKFM=F Big=F
 Integral buffers will be    131072 words long.
 Raffenetti 2 integral format.
 Two-electron integral symmetry is turned on.
 One-electron integrals computed using PRISM.
 NBasis=    83 RedAO= T EigKep=  4.41D-03  NBF=    83
 NBsUse=    83 1.00D-06 EigRej= -1.00D+00 NBFU=    83
 ExpMin= 1.83D-01 ExpMax= 1.72D+02 ExpMxC= 1.72D+02 IAcc=3 IRadAn=         5 AccDes= 0.00D+00
 Harris functional with IExCor=  402 and IRadAn=       5 diagonalized for initial guess.
 HarFok:  IExCor=  402 AccDes= 0.00D+00 IRadAn=         5 IDoV= 1 UseB2=F ITyADJ=14
 ICtDFT=  3500011 ScaDFX=  1.000000  1.000000  1.000000  1.000000
 FoFCou: FMM=F IPFlag=           0 FMFlag=      100000 FMFlg1=           0
         NFxFlg=           0 DoJE=T BraDBF=F KetDBF=T FulRan=T
         wScrn=  0.000000 ICntrl=       500 IOpCl=  0 I1Cent=   200000004 NGrid=           0
         NMat0=    1 NMatS0=      1 NMatT0=    0 NMatD0=    1 NMtDS0=    0 NMtDT0=    0
 Petite list used in FoFCou.
 Keep R1 ints in memory in canonical form, NReq=7891734.
 Requested convergence on RMS density matrix=1.00D-08 within 128 cycles.
 Requested convergence on MAX density matrix=1.00D-06.
 Requested convergence on             energy=1.00D-06.
 No special actions if energy rises.
 Integral accuracy reduced to 1.0D-05 until final iterations.
 Initial convergence to 1.0D-05 achieved.  Increase integral accuracy.
 SCF Done:  E(RB3LYP) =  -271.162003725     A.U. after   13 cycles
            NFock= 13  Conv=0.76D-08     -V/T= 2.0099

 **********************************************************************

            Population analysis using the SCF Density.

 **********************************************************************

 Orbital symmetries:
       Occupied  (A) (A) (A) (A) (A) (A) (A) (A) (A) (A) (A) (A)
                 (A) (A) (A) (A) (A) (A) (A) (A) (A) (A) (A) (A)
                 (A) (A)
       Virtual   (A) (A) (A) (A) (A) (A) (A) (A) (A) (A) (A) (A)
                 (A) (A) (A) (A) (A) (A) (A) (A) (A) (A) (A) (A)
                 (A) (A) (A) (A) (A) (A) (A) (A) (A) (A) (A) (A)
                 (A) (A) (A) (A) (A) (A) (A) (A) (A) (A) (A) (A)
                 (A) (A) (A) (A) (A) (A) (A) (A) (A)
 The electronic state is 1-A.
 Alpha  occ. eigenvalues --  -10.12306 -10.12280 -10.12006 -10.11641 -10.11526
 Alpha  occ. eigenvalues --  -10.11095 -10.10985  -0.85463  -0.72003  -0.70451
 Alpha  occ. eigenvalues --   -0.69665  -0.55996  -0.54892  -0.52579  -0.51302
 Alpha  occ. eigenvalues --   -0.44277  -0.42788  -0.40051  -0.38375  -0.37433
 Alpha  occ. eigenvalues --   -0.35632  -0.35491  -0.33493  -0.29984  -0.21983
 Alpha  occ. eigenvalues --   -0.21277
 Alpha virt. eigenvalues --   -0.00400   0.01076   0.10256   0.12852   0.15180
 Alpha virt. eigenvalues --    0.16335   0.18153   0.18419   0.19394   0.19610
 Alpha virt. eigenvalues --    0.20157   0.21903   0.22175   0.26103   0.27812
 Alpha virt. eigenvalues --    0.33579   0.38537   0.40717   0.47392   0.66926
 Alpha virt. eigenvalues --    0.67980   0.70407   0.72483   0.73425   0.73672
 Alpha virt. eigenvalues --    0.76862   0.76887   0.79288   0.80703   0.82130
 Alpha virt. eigenvalues --    0.85840   0.87770   0.89010   0.94438   0.96890
 Alpha virt. eigenvalues --    0.99578   0.99663   1.01507   1.03295   1.04842
 Alpha virt. eigenvalues --    1.06105   1.07755   1.08860   1.08913   1.11433
 Alpha virt. eigenvalues --    1.17864   1.26085   1.30806   1.36597   1.37881
 Alpha virt. eigenvalues --    1.42254   1.59329   1.70368   1.89828   2.07796
 Alpha virt. eigenvalues --    2.17341   2.23310
          Condensed to atoms (all electrons):
               1          2          3          4          5          6
     1  C    5.249881   0.503927  -0.108267  -0.114720   0.391201  -0.037957
     2  C    0.503927   5.169034   0.414762  -0.108259  -0.035689   0.388092
     3  C   -0.108267   0.414762   5.169059   0.503884   0.003967  -0.032144
     4  C   -0.114720  -0.108259   0.503884   5.249857   0.002877   0.003569
     5  H    0.391201  -0.035689   0.003967   0.002877   0.492797  -0.002102
     6  H   -0.037957   0.388092  -0.032144   0.003569  -0.002102   0.502068
     7  H    0.003569  -0.032136   0.388084  -0.037957  -0.000051  -0.000865
     8  H    0.002878   0.003966  -0.035692   0.391201  -0.000032  -0.000051
     9  C    0.333282  -0.124415  -0.124448   0.333273  -0.031657   0.004506
    10  H   -0.038045   0.002272   0.002265  -0.038042  -0.000108  -0.000109
    11  H   -0.033135   0.002914   0.002914  -0.033074  -0.000533  -0.000071
    12  C    0.015168  -0.008026  -0.008690  -0.009683  -0.001772   0.000030
    13  H   -0.001813  -0.000993   0.000078   0.000218  -0.000007   0.000091
    14  H   -0.000791   0.000001   0.000098   0.000324   0.000149   0.000000
    15  C   -0.009651  -0.008720  -0.008071   0.015200  -0.000037  -0.000040
    16  H    0.000325   0.000099  -0.000006  -0.000812  -0.000001  -0.000000
    17  H    0.000215   0.000079  -0.000988  -0.001807  -0.000001  -0.000001
               7          8          9         10         11         12
     1  C    0.003569   0.002878   0.333282  -0.038045  -0.033135   0.015168
     2  C   -0.032136   0.003966  -0.124415   0.002272   0.002914  -0.008026
     3  C    0.388084  -0.035692  -0.124448   0.002265   0.002914  -0.008690
     4  C   -0.037957   0.391201   0.333273  -0.038042  -0.033074  -0.009683
     5  H   -0.000051  -0.000032  -0.031657  -0.000108  -0.000533  -0.001772
     6  H   -0.000865  -0.000051   0.004506  -0.000109  -0.000071   0.000030
     7  H    0.502034  -0.002102   0.004507  -0.000109  -0.000071  -0.000040
     8  H   -0.002102   0.492804  -0.031663  -0.000108  -0.000533  -0.000037
     9  C    0.004507  -0.031663   5.404984   0.340121   0.359801  -0.017327
    10  H   -0.000109  -0.000108   0.340121   0.535618  -0.023520   0.001158
    11  H   -0.000071  -0.000533   0.359801  -0.023520   0.502956  -0.000014
    12  C   -0.000040  -0.000037  -0.017327   0.001158  -0.000014   5.249903
    13  H   -0.000001  -0.000001   0.000302  -0.000005   0.000100   0.377493
    14  H   -0.000000  -0.000001  -0.000638   0.000011   0.000417   0.369922
    15  C    0.000029  -0.001774  -0.017128   0.001150  -0.000066   0.499915
    16  H    0.000000   0.000153  -0.000608   0.000010   0.000390  -0.044501
    17  H    0.000093  -0.000008   0.000299  -0.000005   0.000101  -0.042485
              13         14         15         16         17
     1  C   -0.001813  -0.000791  -0.009651   0.000325   0.000215
     2  C   -0.000993   0.000001  -0.008720   0.000099   0.000079
     3  C    0.000078   0.000098  -0.008071  -0.000006  -0.000988
     4  C    0.000218   0.000324   0.015200  -0.000812  -0.001807
     5  H   -0.000007   0.000149  -0.000037  -0.000001  -0.000001
     6  H    0.000091   0.000000  -0.000040  -0.000000  -0.000001
     7  H   -0.000001  -0.000000   0.000029   0.000000   0.000093
     8  H   -0.000001  -0.000001  -0.001774   0.000153  -0.000008
     9  C    0.000302  -0.000638  -0.017128  -0.000608   0.000299
    10  H   -0.000005   0.000011   0.001150   0.000010  -0.000005
    11  H    0.000100   0.000417  -0.000066   0.000390   0.000101
    12  C    0.377493   0.369922   0.499915  -0.044501  -0.042485
    13  H    0.527247  -0.036429  -0.042345   0.003148  -0.004275
    14  H   -0.036429   0.544962  -0.044678  -0.004265   0.003164
    15  C   -0.042345  -0.044678   5.249567   0.370036   0.377271
    16  H    0.003148  -0.004265   0.370036   0.544383  -0.036465
    17  H   -0.004275   0.003164   0.377271  -0.036465   0.528046
 Mulliken charges:
               1
     1  C   -0.156067
     2  C   -0.166908
     3  C   -0.166803
     4  C   -0.156050
     5  H    0.180996
     6  H    0.174981
     7  H    0.175015
     8  H    0.180998
     9  C   -0.433189
    10  H    0.217447
    11  H    0.221424
    12  C   -0.381014
    13  H    0.177192
    14  H    0.167754
    15  C   -0.380658
    16  H    0.168115
    17  H    0.176768
 Sum of Mulliken charges =  -0.00000
 Mulliken charges with hydrogens summed into heavy atoms:
               1
     1  C    0.024930
     2  C    0.008073
     3  C    0.008212
     4  C    0.024947
     9  C    0.005681
    12  C   -0.036068
    15  C   -0.035775
 Electronic spatial extent (au):  <R**2>=            709.1736
 Charge=             -0.0000 electrons
 Dipole moment (field-independent basis, Debye):
    X=             -0.0579    Y=             -0.0002    Z=              0.3331  Tot=              0.3381
 Quadrupole moment (field-independent basis, Debye-Ang):
   XX=            -46.3839   YY=            -40.7085   ZZ=            -40.0607
   XY=             -0.0020   XZ=              1.1311   YZ=              0.0021
 Traceless Quadrupole moment (field-independent basis, Debye-Ang):
   XX=             -3.9995   YY=              1.6759   ZZ=              2.3237
   XY=             -0.0020   XZ=              1.1311   YZ=              0.0021
 Octapole moment (field-independent basis, Debye-Ang**2):
  XXX=              2.8811  YYY=              0.0001  ZZZ=             -1.8920  XYY=             -0.0097
  XXY=              0.0107  XXZ=              1.4941  XZZ=             -1.7956  YZZ=              0.0039
  YYZ=             -0.0897  XYZ=              0.0159
 Hexadecapole moment (field-independent basis, Debye-Ang**3):
 XXXX=           -501.6415 YYYY=           -259.6072 ZZZZ=           -215.8417 XXXY=              0.0135
 XXXZ=              6.6818 YYYX=             -0.0138 YYYZ=              0.0412 ZZZX=              3.3577
 ZZZY=              0.0224 XXYY=           -120.8513 XXZZ=           -105.6863 YYZZ=            -76.8854
 XXYZ=             -0.0153 YYXZ=              2.1722 ZZXY=             -0.0067
 N-N= 2.852935678913D+02 E-N=-1.197805520090D+03  KE= 2.685165326532D+02
 Calling FoFJK, ICntrl=      2127 FMM=F ISym2X=0 I1Cent= 0 IOpClX= 0 NMat=1 NMatS=1 NMatT=0.
 ***** Axes restored to original set *****
 -------------------------------------------------------------------
 Center     Atomic                   Forces (Hartrees/Bohr)
 Number     Number              X              Y              Z
 -------------------------------------------------------------------
      1        6           0.009073328    0.000766823   -0.005466386
      2        6          -0.007398981   -0.012515045    0.007061698
      3        6          -0.007321902    0.012469855    0.007203332
      4        6           0.009029882   -0.000778866   -0.005449254
      5        1          -0.000761936   -0.000317125   -0.000163831
      6        1           0.000421955   -0.000119112    0.000035468
      7        1           0.000427705    0.000119034    0.000037670
      8        1          -0.000756306    0.000320624   -0.000164857
      9        6          -0.006397409    0.000094490   -0.006336683
     10        1          -0.001503755   -0.000008736    0.000207034
     11        1          -0.003171482   -0.000053916   -0.000192267
     12        6           0.034739285   -0.065019249    0.003453326
     13        1          -0.013495195   -0.001530507   -0.005503933
     14        1          -0.017012755   -0.003947146    0.003473267
     15        6           0.034586514    0.064814487    0.004968247
     16        1          -0.016833050    0.003944701    0.003029432
     17        1          -0.013625899    0.001759689   -0.006192263
 -------------------------------------------------------------------
 Cartesian Forces:  Max     0.065019249 RMS     0.015828285

 GradGradGradGradGradGradGradGradGradGradGradGradGradGradGradGradGradGrad
 Berny optimization.
 FormGI is forming the generalized inverse of G from B-inverse, IUseBI=4.
 Internal  Forces:  Max     0.052945356 RMS     0.005722877
 Search for a local minimum.
 Step number   1 out of a maximum of  102
 All quantities printed in internal units (Hartrees-Bohrs-Radians)
 Mixed Optimization -- RFO/linear search
 Second derivative matrix not updated -- first step.
 ITU=  0
     Eigenvalues ---    0.00843   0.01649   0.01882   0.01935   0.02270
     Eigenvalues ---    0.02370   0.02771   0.02943   0.03019   0.03729
     Eigenvalues ---    0.03815   0.04286   0.05072   0.05215   0.05276
     Eigenvalues ---    0.06007   0.06191   0.06494   0.06769   0.06833
     Eigenvalues ---    0.07274   0.09186   0.11240   0.12299   0.14000
     Eigenvalues ---    0.15985   0.15992   0.20761   0.25996   0.26536
     Eigenvalues ---    0.30063   0.30810   0.33091   0.33416   0.34053
     Eigenvalues ---    0.34054   0.34194   0.35841   0.35841   0.35924
     Eigenvalues ---    0.35925   0.45494   0.529821000.000001000.00000
     Eigenvalues --- 1000.000001000.000001000.000001000.000001000.00000
     Eigenvalues --- 1000.000001000.000001000.000001000.000001000.00000
     Eigenvalues --- 1000.000001000.000001000.000001000.000001000.00000
     Eigenvalues --- 1000.000001000.000001000.000001000.000001000.00000
     Eigenvalues --- 1000.000001000.000001000.000001000.000001000.00000
     Eigenvalues --- 1000.000001000.000001000.000001000.000001000.00000
     Eigenvalues --- 1000.000001000.000001000.000001000.000001000.00000
     Eigenvalues --- 1000.000001000.000001000.000001000.000001000.00000
     Eigenvalues --- 1000.000001000.000001000.000001000.000001000.00000
     Eigenvalues --- 1000.000001000.000001000.000001000.000001000.00000
     Eigenvalues --- 1000.000001000.000001000.000001000.000001000.00000
     Eigenvalues --- 1000.000001000.000001000.000001000.000001000.00000
     Eigenvalues --- 1000.000001000.000001000.000001000.000001000.00000
     Eigenvalues --- 1000.000001000.000001000.000001000.000001000.00000
     Eigenvalues --- 1000.000001000.000001000.000001000.000001000.00000
     Eigenvalues --- 1000.000001000.000001000.000001000.000001000.00000
     Eigenvalues --- 1000.000001000.000001000.000001000.000001000.00000
     Eigenvalues --- 1000.000001000.000001000.000001000.000001000.00000
     Eigenvalues --- 1000.000001000.000001000.000001000.000001000.00000
     Eigenvalues --- 1000.000001000.000001000.000001000.000001000.00000
     Eigenvalues --- 1000.000001000.000001000.000001000.000001000.00000
 RFO step:  Lambda=-1.95543768D-02 EMin= 8.42936423D-03
 Linear search not attempted -- first point.
 Iteration  1 RMS(Cart)=  0.02151815 RMS(Int)=  0.00091766
 Iteration  2 RMS(Cart)=  0.00064259 RMS(Int)=  0.00063184
 Iteration  3 RMS(Cart)=  0.00000051 RMS(Int)=  0.00063184
 Iteration  1 RMS(Cart)=  0.00002698 RMS(Int)=  0.00001238
 Iteration  2 RMS(Cart)=  0.00000710 RMS(Int)=  0.00001359
 Iteration  3 RMS(Cart)=  0.00000248 RMS(Int)=  0.00001450
 Iteration  4 RMS(Cart)=  0.00000097 RMS(Int)=  0.00001490
 Variable       Old X    -DE/DX   Delta X   Delta X   Delta X     New X
                                 (Linear)    (Quad)   (Total)
    R1        2.55794   0.00771   0.00000   0.01493   0.01509   2.57303
    R2        2.04199  -0.00030   0.00000  -0.00080  -0.00080   2.04119
    R3        2.87047  -0.00181   0.00000  -0.00376  -0.00388   2.86659
    R4        4.91329   0.00633   0.00000   0.00000  -0.00000   4.91328
    R5        2.78030  -0.01411   0.00000  -0.03189  -0.03135   2.74894
    R6        2.04330  -0.00012   0.00000  -0.00031  -0.00031   2.04299
    R7        2.55799   0.00772   0.00000   0.01503   0.01522   2.57321
    R8        2.04330  -0.00012   0.00000  -0.00031  -0.00031   2.04299
    R9        2.04200  -0.00030   0.00000  -0.00080  -0.00080   2.04120
   R10        2.87013  -0.00226   0.00000  -0.00428  -0.00440   2.86573
   R11        4.91329   0.00664   0.00000   0.00000   0.00000   4.91329
   R12        2.08326   0.00102   0.00000   0.00289   0.00289   2.08615
   R13        2.06306  -0.00412   0.00000  -0.00359  -0.00324   2.05982
   R14        4.83685   0.00030   0.00000   0.03210   0.03196   4.86881
   R15        4.84236  -0.00694   0.00000  -0.07667  -0.07654   4.76582
   R16        4.84578  -0.00278   0.00000   0.02824   0.02816   4.87394
   R17        2.07003  -0.00706   0.00000  -0.01952  -0.01952   2.05051
   R18        2.09039  -0.00771   0.00000  -0.02870  -0.02789   2.06250
   R19        2.72031  -0.05295   0.00000  -0.15544  -0.15606   2.56425
   R20        2.08892  -0.01151   0.00000  -0.03284  -0.03284   2.05608
   R21        2.07241  -0.00778   0.00000  -0.02160  -0.02160   2.05081
    A1        2.21663  -0.00170   0.00000  -0.00556  -0.00556   2.21107
    A2        1.90574   0.00155   0.00000   0.00716   0.00663   1.91237
    A3        1.58504   0.00067   0.00000   0.02217   0.02212   1.60716
    A4        2.15656  -0.00001   0.00000  -0.00522  -0.00545   2.15111
    A5        1.73118   0.00248   0.00000   0.00380   0.00371   1.73489
    A6        1.45712  -0.00161   0.00000   0.01202   0.01212   1.46923
    A7        1.90828  -0.00012   0.00000  -0.00320  -0.00355   1.90472
    A8        2.20543   0.00012   0.00000   0.00169   0.00177   2.20720
    A9        2.16911  -0.00006   0.00000   0.00099   0.00107   2.17018
   A10        1.90831  -0.00013   0.00000  -0.00302  -0.00335   1.90496
   A11        2.16914  -0.00006   0.00000   0.00089   0.00095   2.17009
   A12        2.20536   0.00014   0.00000   0.00159   0.00166   2.20702
   A13        2.21643  -0.00173   0.00000  -0.00568  -0.00568   2.21075
   A14        1.90578   0.00169   0.00000   0.00716   0.00661   1.91239
   A15        1.58326   0.00040   0.00000   0.02087   0.02074   1.60400
   A16        2.15666  -0.00013   0.00000  -0.00497  -0.00512   2.15153
   A17        1.73182   0.00330   0.00000   0.00504   0.00504   1.73686
   A18        1.45898  -0.00233   0.00000   0.01028   0.01038   1.46936
   A19        1.78746  -0.00359   0.00000  -0.01709  -0.01752   1.76994
   A20        1.90989   0.00219   0.00000   0.01324   0.01318   1.92307
   A21        1.98262   0.00080   0.00000  -0.00949  -0.00953   1.97309
   A22        1.90985   0.00284   0.00000   0.01306   0.01321   1.92306
   A23        1.98351  -0.00061   0.00000  -0.00877  -0.00892   1.97460
   A24        1.88800  -0.00140   0.00000   0.00952   0.00957   1.89757
   A25        1.64749   0.00108   0.00000   0.00081   0.00084   1.64833
   A26        1.99481  -0.00157   0.00000  -0.01504  -0.01544   1.97937
   A27        1.64555   0.00166   0.00000   0.00016   0.00018   1.64573
   A28        0.88312  -0.00989   0.00000  -0.02420  -0.02511   0.85800
   A29        0.87959  -0.00151   0.00000  -0.00719  -0.00715   0.87244
   A30        1.74822  -0.00531   0.00000  -0.04775  -0.04766   1.70056
   A31        1.77479  -0.00726   0.00000  -0.07381  -0.07344   1.70135
   A32        1.75067   0.00368   0.00000   0.01021   0.01003   1.76069
   A33        2.62777  -0.00682   0.00000  -0.05501  -0.05491   2.57286
   A34        1.97853   0.00087   0.00000   0.02769   0.02323   2.00176
   A35        2.06502  -0.00078   0.00000   0.00947   0.00918   2.07420
   A36        2.06270   0.00513   0.00000   0.02972   0.02841   2.09111
   A37        0.87895  -0.00176   0.00000  -0.00672  -0.00672   0.87223
   A38        1.74983   0.00481   0.00000   0.01428   0.01440   1.76423
   A39        1.77240  -0.00664   0.00000  -0.06528  -0.06525   1.70715
   A40        1.75227  -0.00531   0.00000  -0.04817  -0.04818   1.70410
   A41        1.36148  -0.00475   0.00000  -0.04222  -0.04275   1.31874
   A42        2.63121  -0.00707   0.00000  -0.05485  -0.05489   2.57632
   A43        2.06517   0.00257   0.00000   0.02577   0.02484   2.09002
   A44        2.06284  -0.00274   0.00000   0.00822   0.00855   2.07139
   A45        1.97775   0.00433   0.00000   0.02551   0.02134   1.99909
    D1        3.12473   0.00108   0.00000  -0.00139  -0.00126   3.12347
    D2       -0.04498  -0.00130   0.00000  -0.02167  -0.02158  -0.06656
    D3        0.08004   0.00291   0.00000   0.03987   0.04000   0.12004
    D4       -3.08967   0.00053   0.00000   0.01959   0.01968  -3.06999
    D5       -1.37534   0.00442   0.00000   0.01959   0.01947  -1.35587
    D6        1.73814   0.00205   0.00000  -0.00069  -0.00086   1.73728
    D7       -0.12108  -0.00395   0.00000  -0.05889  -0.05865  -0.17973
    D8        1.90394  -0.00159   0.00000  -0.04703  -0.04700   1.85694
    D9       -2.26745  -0.00127   0.00000  -0.03167  -0.03166  -2.29912
   D10        3.11337  -0.00208   0.00000  -0.01930  -0.01905   3.09432
   D11       -1.14480   0.00028   0.00000  -0.00744  -0.00740  -1.15220
   D12        0.96699   0.00061   0.00000   0.00792   0.00794   0.97493
   D13        1.42515  -0.00399   0.00000  -0.03192  -0.03153   1.39362
   D14       -2.83301  -0.00164   0.00000  -0.02006  -0.01989  -2.85290
   D15       -0.72122  -0.00131   0.00000  -0.00470  -0.00455  -0.72577
   D16        2.24790   0.00164   0.00000   0.00686   0.00672   2.25462
   D17       -0.89995   0.00124   0.00000  -0.00072  -0.00063  -0.90058
   D18       -2.93581   0.00422   0.00000   0.00759   0.00656  -2.92925
   D19        1.22053  -0.00013   0.00000  -0.00277  -0.00290   1.21764
   D20       -1.80583   0.00040   0.00000   0.00650   0.00662  -1.79922
   D21        1.32950  -0.00001   0.00000  -0.00108  -0.00073   1.32877
   D22       -0.70636   0.00298   0.00000   0.00723   0.00646  -0.69990
   D23       -2.83320  -0.00138   0.00000  -0.00313  -0.00300  -2.83620
   D24        0.34158   0.00012   0.00000   0.00251   0.00252   0.34410
   D25       -2.80627  -0.00029   0.00000  -0.00506  -0.00483  -2.81110
   D26        1.44106   0.00270   0.00000   0.00325   0.00236   1.44342
   D27       -0.68578  -0.00166   0.00000  -0.00711  -0.00710  -0.69288
   D28        0.00042  -0.00022   0.00000  -0.00030  -0.00032   0.00010
   D29        3.11432  -0.00238   0.00000  -0.02048  -0.02051   3.09380
   D30       -3.11377   0.00209   0.00000   0.01945   0.01946  -3.09431
   D31        0.00013  -0.00006   0.00000  -0.00073  -0.00073  -0.00061
   D32       -3.12463  -0.00078   0.00000   0.00007  -0.00004  -3.12467
   D33       -0.08070  -0.00258   0.00000  -0.03942  -0.03954  -0.12024
   D34        1.37603  -0.00495   0.00000  -0.02145  -0.02134   1.35469
   D35        0.04538   0.00143   0.00000   0.02079   0.02071   0.06609
   D36        3.08931  -0.00037   0.00000  -0.01870  -0.01879   3.07052
   D37       -1.73714  -0.00274   0.00000  -0.00073  -0.00059  -1.73773
   D38        0.12134   0.00382   0.00000   0.05870   0.05844   0.17978
   D39       -1.90370   0.00193   0.00000   0.04671   0.04681  -1.85689
   D40        2.26711   0.00208   0.00000   0.03097   0.03100   2.29812
   D41       -3.11386   0.00198   0.00000   0.02076   0.02048  -3.09338
   D42        1.14429   0.00009   0.00000   0.00877   0.00885   1.15313
   D43       -0.96808   0.00024   0.00000  -0.00697  -0.00696  -0.97504
   D44       -1.42365   0.00442   0.00000   0.03371   0.03340  -1.39025
   D45        2.83449   0.00253   0.00000   0.02172   0.02178   2.85626
   D46        0.72212   0.00268   0.00000   0.00598   0.00597   0.72809
   D47       -2.24785  -0.00290   0.00000  -0.00761  -0.00748  -2.25533
   D48       -1.22939   0.00049   0.00000   0.00134   0.00125  -1.22813
   D49        2.92541  -0.00172   0.00000  -0.00920  -0.00832   2.91709
   D50        0.88981  -0.00259   0.00000  -0.00086  -0.00064   0.88917
   D51        1.80638  -0.00169   0.00000  -0.00700  -0.00713   1.79925
   D52        2.82484   0.00170   0.00000   0.00195   0.00160   2.82644
   D53        0.69645  -0.00050   0.00000  -0.00859  -0.00797   0.68848
   D54       -1.33915  -0.00137   0.00000  -0.00025  -0.00029  -1.33944
   D55       -0.34134  -0.00119   0.00000  -0.00307  -0.00315  -0.34449
   D56        0.67712   0.00221   0.00000   0.00588   0.00558   0.68270
   D57       -1.45127   0.00000   0.00000  -0.00466  -0.00400  -1.45526
   D58        2.79632  -0.00087   0.00000   0.00368   0.00368   2.80001
   D59        0.73202   0.00235   0.00000   0.00013  -0.00006   0.73196
   D60        0.45937   0.00103   0.00000  -0.01415  -0.01331   0.44606
   D61        1.30326  -0.00887   0.00000  -0.03707  -0.03705   1.26621
   D62       -1.30258   0.00688   0.00000   0.03528   0.03513  -1.26745
   D63       -1.57523   0.00556   0.00000   0.02101   0.02188  -1.55335
   D64       -0.73134  -0.00434   0.00000  -0.00191  -0.00186  -0.73320
   D65        2.85604   0.00466   0.00000   0.01757   0.01730   2.87335
   D66        2.58339   0.00334   0.00000   0.00329   0.00405   2.58744
   D67       -2.85590  -0.00656   0.00000  -0.01962  -0.01968  -2.87559
   D68       -0.48299  -0.00084   0.00000  -0.00468  -0.00456  -0.48756
   D69       -0.49553  -0.00151   0.00000  -0.01874  -0.01709  -0.51262
   D70        0.48261   0.00231   0.00000   0.00526   0.00527   0.48787
   D71        2.51102  -0.00129   0.00000  -0.04164  -0.04128   2.46975
   D72        0.47470   0.00304   0.00000   0.01956   0.01856   0.49326
   D73        2.54542   0.00224   0.00000  -0.00647  -0.00680   2.53862
   D74       -1.70935  -0.00137   0.00000  -0.05338  -0.05334  -1.76269
   D75        2.53751   0.00297   0.00000   0.00782   0.00649   2.54400
   D76        0.00387  -0.00018   0.00000   0.00064   0.00076   0.00463
   D77        1.90962  -0.00411   0.00000  -0.05872  -0.05925   1.85037
   D78       -1.87698   0.00415   0.00000   0.04617   0.04619  -1.83078
   D79        1.88119  -0.00450   0.00000  -0.04649  -0.04659   1.83460
   D80       -2.49625  -0.00843   0.00000  -0.10585  -0.10659  -2.60284
   D81        0.00034  -0.00017   0.00000  -0.00097  -0.00116  -0.00081
   D82       -1.90433   0.00423   0.00000   0.07121   0.07211  -1.83221
   D83        0.00142   0.00030   0.00000   0.01185   0.01211   0.01353
   D84        2.49801   0.00857   0.00000   0.11673   0.11755   2.61556
         Item               Value     Threshold  Converged?
 Maximum Force            0.052121     0.000450     NO 
 RMS     Force            0.005701     0.000300     NO 
 Maximum Displacement     0.090664     0.001800     NO 
 RMS     Displacement     0.021682     0.001200     NO 
 Predicted change in Energy=-1.111331D-02
 GradGradGradGradGradGradGradGradGradGradGradGradGradGradGradGradGradGrad

                          Input orientation:                          
 ---------------------------------------------------------------------
 Center     Atomic      Atomic             Coordinates (Angstroms)
 Number     Number       Type             X           Y           Z
 ---------------------------------------------------------------------
      1          6           0       -0.762981    1.174787   -0.331301
      2          6           0       -1.124291    0.722589    0.901137
      3          6           0       -1.125323   -0.732071    0.893841
      4          6           0       -0.764525   -1.172732   -0.343020
      5          1           0       -0.685888    2.206038   -0.643242
      6          1           0       -1.333669    1.328268    1.771825
      7          1           0       -1.335055   -1.346075    1.758592
      8          1           0       -0.688033   -2.201119   -0.664437
      9          6           0       -0.662863    0.005434   -1.292385
     10          1           0       -1.520302    0.009388   -1.987704
     11          1           0        0.259118    0.008622   -1.873820
     12          6           0        1.749192    0.678185    0.118548
     13          1           0        1.828270    1.201298    1.065918
     14          1           0        2.156524    1.220013   -0.736858
     15          6           0        1.746087   -0.678755    0.118312
     16          1           0        2.161441   -1.219445   -0.729597
     17          1           0        1.823677   -1.199955    1.067041
 ---------------------------------------------------------------------
                    Distance matrix (angstroms):
                    1          2          3          4          5
     1  C    0.000000
     2  C    1.361591   0.000000
     3  C    2.295293   1.454678   0.000000
     4  C    2.347549   2.295560   1.361684   0.000000
     5  H    1.080152   2.185846   3.344878   3.392993   0.000000
     6  H    2.184578   1.081104   2.249280   3.324379   2.650028
     7  H    3.324104   2.249226   1.081103   2.184566   4.336788
     8  H    3.393131   3.345057   2.185762   1.080157   4.407208
     9  C    1.516936   2.353458   2.353161   1.516477   2.294466
    10  H    2.162259   3.001813   3.001511   2.161849   2.707231
    11  H    2.187234   3.181816   3.182020   2.187874   2.689980
    12  C    2.599998   2.978476   3.294350   3.155584   2.973932
    13  H    2.944062   2.995652   3.534295   3.787309   3.201831
    14  H    2.947886   3.700567   4.152147   3.796427   3.010036
    15  C    3.151697   3.288715   2.974774   2.600002   3.849221
    16  H    3.800425   4.150520   3.698095   2.951762   4.455185
    17  H    3.779624   3.523380   2.990905   2.947508   4.563307
                    6          7          8          9         10
     6  H    0.000000
     7  H    2.674376   0.000000
     8  H    4.336911   2.649681   0.000000
     9  C    3.404300   3.403951   2.294303   0.000000
    10  H    3.988526   3.988274   2.707406   1.103941   0.000000
    11  H    4.191559   4.191779   2.691219   1.090012   1.783061
    12  C    3.558085   4.037320   3.852729   2.874254   3.946287
    13  H    3.242266   4.120138   4.571909   3.632826   4.685957
    14  H    4.299611   5.000320   4.449819   3.119736   4.068081
    15  C    4.030775   3.553768   2.975773   2.874234   3.946916
    16  H    4.996374   4.293321   3.014536   3.129497   4.080208
    17  H    4.105785   3.236847   3.210768   3.633557   4.687875
                   11         12         13         14         15
    11  H    0.000000
    12  C    2.576464   0.000000
    13  H    3.539318   1.085085   0.000000
    14  H    2.521964   1.091428   1.832512   0.000000
    15  C    2.579178   1.356944   2.106968   2.122521   0.000000
    16  H    2.536973   2.119033   3.032305   2.439474   1.088033
    17  H    3.543609   2.105373   2.401258   3.036623   1.085244
                   16         17
    16  H    0.000000
    17  H    1.828216   0.000000
 Stoichiometry    C7H10
 Framework group  C1[X(C7H10)]
 Deg. of freedom    45
 Full point group                 C1      NOp   1
 Largest Abelian subgroup         C1      NOp   1
 Largest concise Abelian subgroup C1      NOp   1
                         Standard orientation:                         
 ---------------------------------------------------------------------
 Center     Atomic      Atomic             Coordinates (Angstroms)
 Number     Number       Type             X           Y           Z
 ---------------------------------------------------------------------
      1          6           0       -0.688215   -1.176044    0.351614
      2          6           0       -1.104102   -0.725579   -0.864136
      3          6           0       -1.107684    0.729082   -0.857895
      4          6           0       -0.693875    1.171477    0.361626
      5          1           0       -0.595485   -2.206882    0.660650
      6          1           0       -1.350257   -1.332392   -1.724352
      7          1           0       -1.356338    1.341954   -1.713081
      8          1           0       -0.605394    2.200279    0.678607
      9          6           0       -0.548364   -0.005695    1.306506
     10          1           0       -1.374485   -0.010728    2.038753
     11          1           0        0.398226   -0.006609    1.846961
     12          6           0        1.800835   -0.674950   -0.208319
     13          1           0        1.839334   -1.198702   -1.157851
     14          1           0        2.246347   -1.215271    0.628812
     15          6           0        1.795066    0.681982   -0.208967
     16          1           0        2.246128    1.224185    0.619509
     17          1           0        1.829958    1.202536   -1.160577
 ---------------------------------------------------------------------
 Rotational constants (GHZ):           3.7037146           2.4571521           2.2822730
 Standard basis: 3-21G (6D, 7F)
 There are    83 symmetry adapted cartesian basis functions of A   symmetry.
 There are    83 symmetry adapted basis functions of A   symmetry.
    83 basis functions,   135 primitive gaussians,    83 cartesian basis functions
    26 alpha electrons       26 beta electrons
       nuclear repulsion energy       286.7798219026 Hartrees.
 NAtoms=   17 NActive=   17 NUniq=   17 SFac= 1.00D+00 NAtFMM=   60 NAOKFM=F Big=F
 Integral buffers will be    131072 words long.
 Raffenetti 2 integral format.
 Two-electron integral symmetry is turned on.
 One-electron integrals computed using PRISM.
 NBasis=    83 RedAO= T EigKep=  4.37D-03  NBF=    83
 NBsUse=    83 1.00D-06 EigRej= -1.00D+00 NBFU=    83
 Initial guess from the checkpoint file:  "C3.chk"
 B after Tr=     0.000000    0.000000   -0.000000
         Rot=    0.999994    0.001157   -0.003197    0.000129 Ang=   0.39 deg.
 ExpMin= 1.83D-01 ExpMax= 1.72D+02 ExpMxC= 1.72D+02 IAcc=3 IRadAn=         5 AccDes= 0.00D+00
 Harris functional with IExCor=  402 and IRadAn=       5 diagonalized for initial guess.
 HarFok:  IExCor=  402 AccDes= 0.00D+00 IRadAn=         5 IDoV= 1 UseB2=F ITyADJ=14
 ICtDFT=  3500011 ScaDFX=  1.000000  1.000000  1.000000  1.000000
 FoFCou: FMM=F IPFlag=           0 FMFlag=      100000 FMFlg1=           0
         NFxFlg=           0 DoJE=T BraDBF=F KetDBF=T FulRan=T
         wScrn=  0.000000 ICntrl=       500 IOpCl=  0 I1Cent=   200000004 NGrid=           0
         NMat0=    1 NMatS0=      1 NMatT0=    0 NMatD0=    1 NMtDS0=    0 NMtDT0=    0
 Petite list used in FoFCou.
 Keep R1 ints in memory in canonical form, NReq=7891734.
 Requested convergence on RMS density matrix=1.00D-08 within 128 cycles.
 Requested convergence on MAX density matrix=1.00D-06.
 Requested convergence on             energy=1.00D-06.
 No special actions if energy rises.
 Integral accuracy reduced to 1.0D-05 until final iterations.
 Initial convergence to 1.0D-05 achieved.  Increase integral accuracy.
 SCF Done:  E(RB3LYP) =  -271.175417427     A.U. after   14 cycles
            NFock= 14  Conv=0.50D-08     -V/T= 2.0089
 Calling FoFJK, ICntrl=      2127 FMM=F ISym2X=0 I1Cent= 0 IOpClX= 0 NMat=1 NMatS=1 NMatT=0.
 ***** Axes restored to original set *****
 -------------------------------------------------------------------
 Center     Atomic                   Forces (Hartrees/Bohr)
 Number     Number              X              Y              Z
 -------------------------------------------------------------------
      1        6          -0.000545211    0.005245160   -0.000672265
      2        6          -0.002926784   -0.001448778   -0.000969173
      3        6          -0.002842762    0.001435202   -0.000911126
      4        6          -0.000398913   -0.005294680   -0.000535425
      5        1          -0.000688237    0.000460302    0.000040538
      6        1           0.000563821    0.000529204   -0.000328960
      7        1           0.000543098   -0.000534365   -0.000337062
      8        1          -0.000702302   -0.000446141    0.000013598
      9        6          -0.000405706    0.000187397    0.000738285
     10        1          -0.000199732    0.000005709    0.002006874
     11        1          -0.002272717   -0.000079709   -0.002114166
     12        6           0.027124728   -0.011903847    0.003874957
     13        1          -0.010912523    0.003795573   -0.001282990
     14        1          -0.011555299    0.001370674   -0.001095279
     15        6           0.027471858    0.013003548    0.006110952
     16        1          -0.011352231   -0.002577836   -0.003297662
     17        1          -0.010901088   -0.003747412   -0.001241097
 -------------------------------------------------------------------
 Cartesian Forces:  Max     0.027471858 RMS     0.007005187

 GradGradGradGradGradGradGradGradGradGradGradGradGradGradGradGradGradGrad
 Berny optimization.
 Using GEDIIS/GDIIS optimizer.
 FormGI is forming the generalized inverse of G from B-inverse, IUseBI=4.
 Internal  Forces:  Max     0.008414384 RMS     0.001805045
 Search for a local minimum.
 Step number   2 out of a maximum of  102
 All quantities printed in internal units (Hartrees-Bohrs-Radians)
 Mixed Optimization -- RFO/linear search
 Update second derivatives using D2CorX and points    1    2
 DE= -1.34D-02 DEPred=-1.11D-02 R= 1.21D+00
 TightC=F SS=  1.41D+00  RLast= 3.69D-01 DXNew= 5.0454D-01 1.1083D+00
 Trust test= 1.21D+00 RLast= 3.69D-01 DXMaxT set to 5.05D-01
 ITU=  1  0
 Use linear search instead of GDIIS.
     Eigenvalues ---    0.00841   0.01705   0.01931   0.02014   0.02283
     Eigenvalues ---    0.02377   0.02765   0.02907   0.03045   0.03076
     Eigenvalues ---    0.03775   0.03868   0.04942   0.05232   0.05350
     Eigenvalues ---    0.05940   0.06176   0.06521   0.06621   0.07102
     Eigenvalues ---    0.07314   0.08716   0.11237   0.12195   0.13951
     Eigenvalues ---    0.15955   0.15974   0.20704   0.25920   0.27053
     Eigenvalues ---    0.29995   0.31273   0.33137   0.33405   0.34053
     Eigenvalues ---    0.34191   0.35841   0.35841   0.35912   0.35924
     Eigenvalues ---    0.39911   0.45399   0.533761000.000001000.00000
     Eigenvalues --- 1000.000001000.000001000.000001000.000001000.00000
     Eigenvalues --- 1000.000001000.000001000.000001000.000001000.00000
     Eigenvalues --- 1000.000001000.000001000.000001000.000001000.00000
     Eigenvalues --- 1000.000001000.000001000.000001000.000001000.00000
     Eigenvalues --- 1000.000001000.000001000.000001000.000001000.00000
     Eigenvalues --- 1000.000001000.000001000.000001000.000001000.00000
     Eigenvalues --- 1000.000001000.000001000.000001000.000001000.00000
     Eigenvalues --- 1000.000001000.000001000.000001000.000001000.00000
     Eigenvalues --- 1000.000001000.000001000.000001000.000001000.00000
     Eigenvalues --- 1000.000001000.000001000.000001000.000001000.00000
     Eigenvalues --- 1000.000001000.000001000.000001000.000001000.00000
     Eigenvalues --- 1000.000001000.000001000.000001000.000001000.00000
     Eigenvalues --- 1000.000001000.000001000.000001000.000001000.00000
     Eigenvalues --- 1000.000001000.000001000.000001000.000001000.00000
     Eigenvalues --- 1000.000001000.000001000.000001000.000001000.00000
     Eigenvalues --- 1000.000001000.000001000.000001000.000001000.00000
     Eigenvalues --- 1000.000001000.000001000.000001000.000001000.00000
     Eigenvalues --- 1000.000001000.000001000.000001000.000001000.00000
     Eigenvalues --- 1000.000001000.000001000.000001000.000001000.00000
     Eigenvalues --- 1000.000001000.000001000.000001000.000001000.00000
     Eigenvalues --- 1000.000001000.000001000.000001000.000001000.00000
 RFO step:  Lambda=-5.73592447D-03 EMin= 8.41477123D-03
 Quartic linear search produced a step of  0.36002.
 Iteration  1 RMS(Cart)=  0.02289337 RMS(Int)=  0.00210558
 Iteration  2 RMS(Cart)=  0.00130286 RMS(Int)=  0.00165283
 Iteration  3 RMS(Cart)=  0.00000145 RMS(Int)=  0.00165283
 Iteration  4 RMS(Cart)=  0.00000000 RMS(Int)=  0.00165283
 Iteration  1 RMS(Cart)=  0.00003515 RMS(Int)=  0.00001657
 Iteration  2 RMS(Cart)=  0.00000957 RMS(Int)=  0.00001821
 Iteration  3 RMS(Cart)=  0.00000342 RMS(Int)=  0.00001948
 Iteration  4 RMS(Cart)=  0.00000137 RMS(Int)=  0.00002005
 Iteration  5 RMS(Cart)=  0.00000056 RMS(Int)=  0.00002030
 Variable       Old X    -DE/DX   Delta X   Delta X   Delta X     New X
                                 (Linear)    (Quad)   (Total)
    R1        2.57303   0.00009   0.00543  -0.00189   0.00378   2.57682
    R2        2.04119   0.00038  -0.00029   0.00147   0.00118   2.04237
    R3        2.86659   0.00042  -0.00140   0.00307   0.00146   2.86805
    R4        4.91328   0.00492  -0.00000   0.00000   0.00000   4.91329
    R5        2.74894   0.00081  -0.01129   0.00468  -0.00579   2.74315
    R6        2.04299  -0.00008  -0.00011  -0.00025  -0.00036   2.04263
    R7        2.57321  -0.00004   0.00548  -0.00193   0.00385   2.57706
    R8        2.04299  -0.00007  -0.00011  -0.00022  -0.00034   2.04265
    R9        2.04120   0.00037  -0.00029   0.00144   0.00115   2.04235
   R10        2.86573   0.00052  -0.00158   0.00299   0.00113   2.86686
   R11        4.91329   0.00433   0.00000   0.00000  -0.00000   4.91329
   R12        2.08615  -0.00111   0.00104  -0.00467  -0.00363   2.08252
   R13        2.05982  -0.00025  -0.00117  -0.00292  -0.00347   2.05635
   R14        4.86881   0.00203   0.01151   0.01780   0.02894   4.89776
   R15        4.76582  -0.00208  -0.02756  -0.07134  -0.09848   4.66734
   R16        4.87394   0.00137   0.01014   0.01426   0.02391   4.89785
   R17        2.05051  -0.00008  -0.00703   0.00204  -0.00499   2.04553
   R18        2.06250  -0.00187  -0.01004  -0.00422  -0.01252   2.04998
   R19        2.56425  -0.00365  -0.05618   0.01085  -0.04625   2.51801
   R20        2.05608  -0.00048  -0.01182   0.00213  -0.00970   2.04639
   R21        2.05081  -0.00006  -0.00778   0.00237  -0.00540   2.04541
    A1        2.21107   0.00029  -0.00200   0.00188  -0.00007   2.21100
    A2        1.91237  -0.00102   0.00239  -0.01161  -0.00958   1.90280
    A3        1.60716   0.00069   0.00796   0.00746   0.01550   1.62266
    A4        2.15111   0.00061  -0.00196   0.00772   0.00535   2.15645
    A5        1.73489   0.00041   0.00134   0.00493   0.00613   1.74102
    A6        1.46923  -0.00042   0.00436   0.00050   0.00489   1.47412
    A7        1.90472   0.00042  -0.00128   0.00456   0.00293   1.90765
    A8        2.20720  -0.00094   0.00064  -0.00821  -0.00748   2.19972
    A9        2.17018   0.00050   0.00039   0.00336   0.00383   2.17402
   A10        1.90496   0.00029  -0.00121   0.00443   0.00294   1.90790
   A11        2.17009   0.00057   0.00034   0.00346   0.00387   2.17396
   A12        2.20702  -0.00088   0.00060  -0.00814  -0.00747   2.19956
   A13        2.21075   0.00032  -0.00205   0.00195  -0.00007   2.21068
   A14        1.91239  -0.00091   0.00238  -0.01143  -0.00945   1.90295
   A15        1.60400   0.00071   0.00747   0.00778   0.01505   1.61905
   A16        2.15153   0.00047  -0.00184   0.00753   0.00540   2.15693
   A17        1.73686   0.00045   0.00181   0.00546   0.00745   1.74431
   A18        1.46936  -0.00048   0.00374  -0.00087   0.00279   1.47216
   A19        1.76994   0.00101  -0.00631   0.01135   0.00496   1.77490
   A20        1.92307  -0.00034   0.00475  -0.00731  -0.00273   1.92034
   A21        1.97309  -0.00018  -0.00343  -0.00083  -0.00427   1.96882
   A22        1.92306  -0.00047   0.00475  -0.00793  -0.00299   1.92007
   A23        1.97460  -0.00042  -0.00321   0.00193  -0.00145   1.97315
   A24        1.89757   0.00038   0.00344   0.00248   0.00599   1.90356
   A25        1.64833   0.00082   0.00030  -0.00681  -0.00652   1.64180
   A26        1.97937  -0.00052  -0.00556  -0.02152  -0.02803   1.95133
   A27        1.64573   0.00083   0.00006  -0.00697  -0.00699   1.63874
   A28        0.85800  -0.00050  -0.00904   0.01373   0.00291   0.86091
   A29        0.87244  -0.00068  -0.00257  -0.00180  -0.00428   0.86815
   A30        1.70056  -0.00425  -0.01716  -0.05558  -0.07176   1.62879
   A31        1.70135  -0.00420  -0.02644  -0.07294  -0.09804   1.60331
   A32        1.76069   0.00020   0.00361   0.00077   0.00413   1.76483
   A33        2.57286  -0.00494  -0.01977  -0.05758  -0.07636   2.49650
   A34        2.00176   0.00001   0.00836   0.00422   0.00143   2.00319
   A35        2.07420   0.00193   0.00330   0.03062   0.03211   2.10631
   A36        2.09111   0.00211   0.01023   0.02807   0.03383   2.12494
   A37        0.87223  -0.00061  -0.00242  -0.00067  -0.00304   0.86918
   A38        1.76423   0.00073   0.00518   0.00223   0.00775   1.77198
   A39        1.70715  -0.00415  -0.02349  -0.07529  -0.09789   1.60926
   A40        1.70410  -0.00442  -0.01734  -0.05689  -0.07354   1.63056
   A41        1.31874  -0.00246  -0.01539  -0.04336  -0.05893   1.25981
   A42        2.57632  -0.00503  -0.01976  -0.05760  -0.07678   2.49954
   A43        2.09002   0.00121   0.00894   0.03366   0.03852   2.12854
   A44        2.07139   0.00176   0.00308   0.02915   0.03165   2.10304
   A45        1.99909   0.00098   0.00768   0.00277  -0.00148   1.99761
    D1        3.12347  -0.00034  -0.00045  -0.00758  -0.00796   3.11551
    D2       -0.06656  -0.00077  -0.00777  -0.01405  -0.02174  -0.08830
    D3        0.12004   0.00057   0.01440   0.00797   0.02231   0.14235
    D4       -3.06999   0.00014   0.00709   0.00150   0.00852  -3.06147
    D5       -1.35587   0.00078   0.00701   0.00483   0.01186  -1.34401
    D6        1.73728   0.00035  -0.00031  -0.00164  -0.00192   1.73536
    D7       -0.17973  -0.00092  -0.02111  -0.01227  -0.03325  -0.21298
    D8        1.85694  -0.00108  -0.01692  -0.01851  -0.03525   1.82169
    D9       -2.29912  -0.00096  -0.01140  -0.02123  -0.03248  -2.33159
   D10        3.09432  -0.00002  -0.00686   0.00311  -0.00368   3.09064
   D11       -1.15220  -0.00018  -0.00267  -0.00313  -0.00567  -1.15788
   D12        0.97493  -0.00006   0.00286  -0.00584  -0.00290   0.97203
   D13        1.39362  -0.00023  -0.01135  -0.00297  -0.01415   1.37947
   D14       -2.85290  -0.00039  -0.00716  -0.00921  -0.01615  -2.86905
   D15       -0.72577  -0.00027  -0.00164  -0.01193  -0.01337  -0.73914
   D16        2.25462  -0.00094   0.00242  -0.00871  -0.00639   2.24823
   D17       -0.90058  -0.00139  -0.00023  -0.01972  -0.01936  -0.91995
   D18       -2.92925   0.00038   0.00236   0.00297   0.00301  -2.92624
   D19        1.21764  -0.00059  -0.00104  -0.00419  -0.00544   1.21220
   D20       -1.79922  -0.00041   0.00238  -0.00415  -0.00146  -1.80068
   D21        1.32877  -0.00085  -0.00026  -0.01516  -0.01444   1.31433
   D22       -0.69990   0.00091   0.00233   0.00753   0.00794  -0.69196
   D23       -2.83620  -0.00006  -0.00108   0.00037  -0.00051  -2.83671
   D24        0.34410   0.00015   0.00091   0.00367   0.00457   0.34868
   D25       -2.81110  -0.00030  -0.00174  -0.00735  -0.00840  -2.81950
   D26        1.44342   0.00147   0.00085   0.01534   0.01397   1.45739
   D27       -0.69288   0.00050  -0.00255   0.00818   0.00552  -0.68736
   D28        0.00010  -0.00003  -0.00011  -0.00081  -0.00096  -0.00085
   D29        3.09380  -0.00046  -0.00738  -0.00630  -0.01380   3.08000
   D30       -3.09431   0.00044   0.00701   0.00589   0.01296  -3.08135
   D31       -0.00061   0.00001  -0.00026   0.00039   0.00011  -0.00049
   D32       -3.12467   0.00039  -0.00001   0.00845   0.00840  -3.11627
   D33       -0.12024  -0.00053  -0.01424  -0.00672  -0.02084  -0.14108
   D34        1.35469  -0.00079  -0.00768  -0.00488  -0.01272   1.34197
   D35        0.06609   0.00079   0.00746   0.01368   0.02108   0.08717
   D36        3.07052  -0.00014  -0.00677  -0.00149  -0.00815   3.06237
   D37       -1.73773  -0.00039  -0.00021   0.00035  -0.00004  -1.73777
   D38        0.17978   0.00092   0.02104   0.01179   0.03267   0.21245
   D39       -1.85689   0.00098   0.01685   0.01757   0.03448  -1.82242
   D40        2.29812   0.00112   0.01116   0.01883   0.02993   2.32805
   D41       -3.09338   0.00002   0.00737  -0.00322   0.00407  -3.08932
   D42        1.15313   0.00009   0.00319   0.00257   0.00587   1.15901
   D43       -0.97504   0.00023  -0.00251   0.00383   0.00133  -0.97371
   D44       -1.39025   0.00024   0.01203   0.00264   0.01476  -1.37549
   D45        2.85626   0.00031   0.00784   0.00842   0.01656   2.87283
   D46        0.72809   0.00044   0.00215   0.00968   0.01202   0.74011
   D47       -2.25533   0.00070  -0.00269   0.00999   0.00728  -2.24805
   D48       -1.22813   0.00054   0.00045   0.00867   0.00886  -1.21927
   D49        2.91709   0.00038  -0.00300  -0.00354  -0.00444   2.91265
   D50        0.88917   0.00123  -0.00023   0.02238   0.02218   0.91135
   D51        1.79925   0.00012  -0.00257   0.00520   0.00223   1.80148
   D52        2.82644  -0.00003   0.00058   0.00389   0.00381   2.83025
   D53        0.68848  -0.00020  -0.00287  -0.00833  -0.00949   0.67899
   D54       -1.33944   0.00065  -0.00010   0.01759   0.01713  -1.32231
   D55       -0.34449  -0.00028  -0.00113  -0.00224  -0.00358  -0.34807
   D56        0.68270  -0.00044   0.00201  -0.00356  -0.00199   0.68071
   D57       -1.45526  -0.00061  -0.00144  -0.01577  -0.01529  -1.47056
   D58        2.80001   0.00025   0.00133   0.01015   0.01132   2.81133
   D59        0.73196   0.00082  -0.00002   0.00836   0.00810   0.74006
   D60        0.44606  -0.00014  -0.00479  -0.00977  -0.01275   0.43330
   D61        1.26621  -0.00011  -0.01334   0.00859  -0.00493   1.26129
   D62       -1.26745  -0.00007   0.01265  -0.00682   0.00558  -1.26187
   D63       -1.55335  -0.00102   0.00788  -0.02496  -0.01527  -1.56862
   D64       -0.73320  -0.00100  -0.00067  -0.00659  -0.00745  -0.74064
   D65        2.87335   0.00054   0.00623   0.00024   0.00604   2.87939
   D66        2.58744  -0.00042   0.00146  -0.01790  -0.01481   2.57263
   D67       -2.87559  -0.00040  -0.00709   0.00046  -0.00698  -2.88257
   D68       -0.48756  -0.00038  -0.00164  -0.00649  -0.00796  -0.49552
   D69       -0.51262  -0.00102  -0.00615  -0.02469  -0.02705  -0.53967
   D70        0.48787   0.00059   0.00190   0.00430   0.00630   0.49418
   D71        2.46975  -0.00254  -0.01486  -0.06039  -0.07429   2.39545
   D72        0.49326   0.00153   0.00668   0.02678   0.03061   0.52387
   D73        2.53862  -0.00071  -0.00245  -0.02371  -0.02652   2.51210
   D74       -1.76269  -0.00384  -0.01920  -0.08840  -0.10712  -1.86981
   D75        2.54400   0.00023   0.00234  -0.00123  -0.00221   2.54179
   D76        0.00463  -0.00004   0.00027  -0.00197  -0.00145   0.00318
   D77        1.85037  -0.00414  -0.02133  -0.07920  -0.10204   1.74833
   D78       -1.83078   0.00417   0.01663   0.05426   0.07113  -1.75965
   D79        1.83460  -0.00432  -0.01677  -0.05721  -0.07427   1.76033
   D80       -2.60284  -0.00841  -0.03838  -0.13445  -0.17485  -2.77769
   D81       -0.00081  -0.00011  -0.00042  -0.00098  -0.00168  -0.00249
   D82       -1.83221   0.00416   0.02596   0.07553   0.10333  -1.72888
   D83        0.01353   0.00006   0.00436  -0.00171   0.00275   0.01628
   D84        2.61556   0.00836   0.04232   0.13176   0.17592   2.79148
         Item               Value     Threshold  Converged?
 Maximum Force            0.008405     0.000450     NO 
 RMS     Force            0.001717     0.000300     NO 
 Maximum Displacement     0.131986     0.001800     NO 
 RMS     Displacement     0.022782     0.001200     NO 
 Predicted change in Energy=-5.644453D-03
 GradGradGradGradGradGradGradGradGradGradGradGradGradGradGradGradGradGrad

                          Input orientation:                          
 ---------------------------------------------------------------------
 Center     Atomic      Atomic             Coordinates (Angstroms)
 Number     Number       Type             X           Y           Z
 ---------------------------------------------------------------------
      1          6           0       -0.731612    1.177245   -0.327186
      2          6           0       -1.118498    0.721098    0.898227
      3          6           0       -1.119409   -0.730501    0.891492
      4          6           0       -0.734130   -1.176096   -0.338445
      5          1           0       -0.655511    2.209797   -0.637218
      6          1           0       -1.333173    1.330419    1.764840
      7          1           0       -1.334438   -1.347521    1.752565
      8          1           0       -0.659146   -2.206015   -0.657350
      9          6           0       -0.645230    0.004640   -1.286856
     10          1           0       -1.512655    0.008539   -1.966567
     11          1           0        0.268922    0.009169   -1.877134
     12          6           0        1.777410    0.667102    0.125093
     13          1           0        1.786444    1.217866    1.056900
     14          1           0        2.086714    1.238411   -0.743658
     15          6           0        1.773131   -0.665361    0.122856
     16          1           0        2.091597   -1.238091   -0.739254
     17          1           0        1.780964   -1.216228    1.054544
 ---------------------------------------------------------------------
                    Distance matrix (angstroms):
                    1          2          3          4          5
     1  C    0.000000
     2  C    1.363593   0.000000
     3  C    2.296748   1.451614   0.000000
     4  C    2.353368   2.297050   1.363723   0.000000
     5  H    1.080776   2.188190   3.346268   3.399958   0.000000
     6  H    2.182179   1.080914   2.248515   3.326451   2.646207
     7  H    3.326139   2.248490   1.080925   2.182219   4.338954
     8  H    3.400104   3.346463   2.188126   1.080767   4.415860
     9  C    1.517706   2.347740   2.347441   1.517077   2.298881
    10  H    2.159508   2.978279   2.978141   2.158759   2.710609
    11  H    2.183531   3.183459   3.184316   2.185985   2.689746
    12  C    2.599999   2.997822   3.306391   3.149616   2.979955
    13  H    2.873665   2.951380   3.502495   3.745843   3.133227
    14  H    2.849588   3.638240   4.102384   3.735131   2.911137
    15  C    3.141889   3.299240   2.993631   2.600001   3.839603
    16  H    3.738202   4.101765   3.636968   2.854685   4.409643
    17  H    3.735093   3.490637   2.945281   2.875366   4.531679
                    6          7          8          9         10
     6  H    0.000000
     7  H    2.677969   0.000000
     8  H    4.339088   2.645887   0.000000
     9  C    3.397617   3.397268   2.298580   0.000000
    10  H    3.962698   3.962651   2.710494   1.102020   0.000000
    11  H    4.192420   4.193577   2.693738   1.088174   1.783821
    12  C    3.578336   4.048577   3.847574   2.881257   3.953894
    13  H    3.200915   4.099398   4.543405   3.588614   4.635503
    14  H    4.242247   4.962102   4.405822   3.046436   3.995441
    15  C    4.040838   3.574671   2.983003   2.878308   3.951736
    16  H    4.959514   4.237788   2.917220   3.055237   4.006372
    17  H    4.085067   3.195340   3.140764   3.585957   4.634123
                   11         12         13         14         15
    11  H    0.000000
    12  C    2.591780   0.000000
    13  H    3.517440   1.082446   0.000000
    14  H    2.469852   1.084800   1.825540   0.000000
    15  C    2.591833   1.332472   2.102180   2.115072   0.000000
    16  H    2.484467   2.115554   3.057943   2.476511   1.082901
[...]
 ! D35   D(7,3,4,8)              6.0117         -DE/DX =    0.0                 !
 ! D36   D(7,3,4,9)            174.5708         -DE/DX =    0.0002              !
 ! D37   D(7,3,4,15)           -99.6421         -DE/DX =   -0.0002              !
 ! D38   D(3,4,9,1)             13.8189         -DE/DX =   -0.0004              !
 ! D39   D(3,4,9,10)           -99.4817         -DE/DX =    0.0                 !
 ! D40   D(3,4,9,11)           139.4884         -DE/DX =   -0.0001              !
 ! D41   D(8,4,9,1)           -177.1855         -DE/DX =   -0.0002              !
 ! D42   D(8,4,9,10)            69.5139         -DE/DX =    0.0002              !
 ! D43   D(8,4,9,11)           -51.5159         -DE/DX =    0.0                 !
 ! D44   D(15,4,9,1)           -78.5361         -DE/DX =   -0.001               !
 ! D45   D(15,4,9,10)          168.1633         -DE/DX =   -0.0006              !
 ! D46   D(15,4,9,11)           47.1334         -DE/DX =   -0.0007              !
 ! D47   D(3,4,15,11)         -129.1111         -DE/DX =    0.0002              !
 ! D48   D(3,4,15,12)          -69.4311         -DE/DX =    0.0002              !
 ! D49   D(3,4,15,16)          168.8894         -DE/DX =    0.0001              !
 ! D50   D(3,4,15,17)           52.662          -DE/DX =    0.0002              !
 ! D51   D(8,4,15,11)          102.5575         -DE/DX =    0.0                 !
 ! D52   D(8,4,15,12)          162.2375         -DE/DX =    0.0                 !
 ! D53   D(8,4,15,16)           40.558          -DE/DX =    0.0                 !
 ! D54   D(8,4,15,17)          -75.6694         -DE/DX =    0.0                 !
 ! D55   D(9,4,15,11)          -20.6261         -DE/DX =    0.0                 !
 ! D56   D(9,4,15,12)           39.0539         -DE/DX =    0.0                 !
 ! D57   D(9,4,15,16)          -82.6256         -DE/DX =   -0.0001              !
 ! D58   D(9,4,15,17)          161.147          -DE/DX =    0.0                 !
 ! D59   D(1,9,11,12)           44.7791         -DE/DX =    0.0004              !
 ! D60   D(1,9,11,14)           27.4044         -DE/DX =    0.0002              !
 ! D61   D(1,9,11,15)           73.582          -DE/DX =    0.0001              !
 ! D62   D(4,9,11,12)          -73.5751         -DE/DX =   -0.0001              !
 ! D63   D(4,9,11,14)          -90.9498         -DE/DX =   -0.0002              !
 ! D64   D(4,9,11,15)          -44.7722         -DE/DX =   -0.0004              !
 ! D65   D(10,9,11,12)         165.6023         -DE/DX =    0.0001              !
 ! D66   D(10,9,11,14)         148.2276         -DE/DX =    0.0                 !
 ! D67   D(10,9,11,15)        -165.5948         -DE/DX =   -0.0001              !
 ! D68   D(9,11,12,1)          -29.3071         -DE/DX =    0.0003              !
 ! D69   D(9,11,12,13)         -31.9943         -DE/DX =    0.0003              !
 ! D70   D(9,11,15,4)           29.3035         -DE/DX =   -0.0003              !
 ! D71   D(9,11,15,16)         134.3163         -DE/DX =   -0.0001              !
 ! D72   D(9,11,15,17)          31.9335         -DE/DX =   -0.0002              !
 ! D73   D(14,11,15,4)         141.0497         -DE/DX =    0.0                 !
 ! D74   D(14,11,15,16)       -113.9374         -DE/DX =    0.0002              !
 ! D75   D(14,11,15,17)        143.6798         -DE/DX =    0.0                 !
 ! D76   D(1,12,15,4)            0.0185         -DE/DX =    0.0                 !
 ! D77   D(1,12,15,16)          90.9882         -DE/DX =   -0.0002              !
 ! D78   D(1,12,15,17)         -94.9263         -DE/DX =   -0.0002              !
 ! D79   D(13,12,15,4)          94.95           -DE/DX =    0.0002              !
 ! D80   D(13,12,15,16)       -174.0803         -DE/DX =    0.0                 !
 ! D81   D(13,12,15,17)          0.0052         -DE/DX =    0.0                 !
 ! D82   D(14,12,15,4)         -91.0138         -DE/DX =    0.0003              !
 ! D83   D(14,12,15,16)         -0.0441         -DE/DX =    0.0002              !
 ! D84   D(14,12,15,17)        174.0413         -DE/DX =    0.0002              !
 --------------------------------------------------------------------------------
 GradGradGradGradGradGradGradGradGradGradGradGradGradGradGradGradGradGrad

                          Input orientation:                          
 ---------------------------------------------------------------------
 Center     Atomic      Atomic             Coordinates (Angstroms)
 Number     Number       Type             X           Y           Z
 ---------------------------------------------------------------------
      1          6           0       -0.689097    1.180153   -0.323126
      2          6           0       -1.105203    0.725583    0.890671
      3          6           0       -1.105086   -0.731852    0.885520
      4          6           0       -0.688845   -1.177764   -0.331443
      5          1           0       -0.616596    2.212185   -0.635786
      6          1           0       -1.339277    1.334585    1.752910
      7          1           0       -1.339039   -1.346970    1.743440
      8          1           0       -0.616460   -2.207564   -0.651425
      9          6           0       -0.604870    0.004553   -1.281818
     10          1           0       -1.519967    0.006602   -1.900544
     11          1           0        0.256440    0.007038   -1.948316
     12          6           0        1.816778    0.669753    0.146001
     13          1           0        1.725196    1.237290    1.063560
     14          1           0        2.002828    1.248444   -0.753028
     15          6           0        1.816892   -0.670443    0.141744
     16          1           0        2.002359   -1.243275   -0.761147
     17          1           0        1.725327   -1.243847    1.055637
 ---------------------------------------------------------------------
                    Distance matrix (angstroms):
                    1          2          3          4          5
     1  C    0.000000
     2  C    1.361279   0.000000
     3  C    2.299920   1.457444   0.000000
     4  C    2.357932   2.299923   1.361284   0.000000
     5  H    1.080788   2.186045   3.349679   3.404351   0.000000
     6  H    2.180942   1.081264   2.253303   3.328587   2.645434
     7  H    3.328583   2.253302   1.081264   2.180945   4.341685
     8  H    3.404362   3.349668   2.186019   1.080793   4.419777
     9  C    1.519283   2.343059   2.343045   1.519256   2.300247
    10  H    2.134436   2.912016   2.911974   2.134377   2.698201
    11  H    2.216187   3.229586   3.229603   2.216213   2.710646
    12  C    2.600000   3.015896   3.323954   3.149511   2.985230
    13  H    2.784775   2.881474   3.452493   3.688646   3.053225
    14  H    2.726893   3.554573   4.033056   3.648195   2.793551
    15  C    3.149729   3.323916   3.015780   2.600000   3.851748
    16  H    3.648123   4.032598   3.553770   2.726081   4.337609
    17  H    3.688659   3.452212   2.881374   2.785064   4.504406
                    6          7          8          9         10
     6  H    0.000000
     7  H    2.681572   0.000000
     8  H    4.341671   2.645395   0.000000
     9  C    3.393805   3.393789   2.300216   0.000000
    10  H    3.891518   3.891466   2.697991   1.104639   0.000000
    11  H    4.243556   4.243578   2.710783   1.089073   1.777050
    12  C    3.603449   4.071630   3.851686   2.888865   3.970137
    13  H    3.142557   4.065731   4.504613   3.528405   4.564163
    14  H    4.178135   4.912902   4.337624   2.937171   3.907564
    15  C    4.071535   3.603196   2.985475   2.889132   3.970385
    16  H    4.912472   4.177158   2.792867   2.936975   3.907327
    17  H    4.065255   3.142300   3.053976   3.528742   4.564489
                   11         12         13         14         15
    11  H    0.000000
    12  C    2.694440   0.000000
    13  H    3.569616   1.082774   0.000000
    14  H    2.453502   1.085242   1.837715   0.000000
    15  C    2.694873   1.340202   2.120754   2.125398   0.000000
    16  H    2.453750   2.125331   3.091856   2.491732   1.085241
    17  H    3.570164   2.120770   2.481150   3.091891   1.082763
                   16         17
    16  H    0.000000
    17  H    1.837784   0.000000
 Stoichiometry    C7H10
 Framework group  C1[X(C7H10)]
 Deg. of freedom    45
 Full point group                 C1      NOp   1
 Largest Abelian subgroup         C1      NOp   1
 Largest concise Abelian subgroup C1      NOp   1
                         Standard orientation:                         
 ---------------------------------------------------------------------
 Center     Atomic      Atomic             Coordinates (Angstroms)
 Number     Number       Type             X           Y           Z
 ---------------------------------------------------------------------
      1          6           0       -0.651850   -1.179078    0.353960
      2          6           0       -1.126735   -0.728466   -0.839569
      3          6           0       -1.126693    0.728978   -0.839136
      4          6           0       -0.651722    1.178854    0.354642
      5          1           0       -0.563962   -2.210089    0.666045
      6          1           0       -1.402427   -1.340271   -1.687402
      7          1           0       -1.402330    1.341301   -1.686613
      8          1           0       -0.564055    2.209688    0.667387
      9          6           0       -0.521252   -0.000377    1.303606
     10          1           0       -1.405098   -0.000484    1.966210
     11          1           0        0.371526   -0.000647    1.927327
     12          6           0        1.828062   -0.670032   -0.238415
     13          1           0        1.691985   -1.240541   -1.148581
     14          1           0        2.057847   -1.245798    0.652339
     15          6           0        1.828082    0.670171   -0.238496
     16          1           0        2.057216    1.245934    0.652426
     17          1           0        1.691946    1.240609   -1.148685
 ---------------------------------------------------------------------
 Rotational constants (GHZ):           3.7151354           2.4705792           2.2797272

 **********************************************************************

            Population analysis using the SCF Density.

 **********************************************************************

 Orbital symmetries:
       Occupied  (A) (A) (A) (A) (A) (A) (A) (A) (A) (A) (A) (A)
                 (A) (A) (A) (A) (A) (A) (A) (A) (A) (A) (A) (A)
                 (A) (A)
       Virtual   (A) (A) (A) (A) (A) (A) (A) (A) (A) (A) (A) (A)
                 (A) (A) (A) (A) (A) (A) (A) (A) (A) (A) (A) (A)
                 (A) (A) (A) (A) (A) (A) (A) (A) (A) (A) (A) (A)
                 (A) (A) (A) (A) (A) (A) (A) (A) (A) (A) (A) (A)
                 (A) (A) (A) (A) (A) (A) (A) (A) (A)
 The electronic state is 1-A.
 Alpha  occ. eigenvalues --  -10.12347 -10.12214 -10.12163 -10.11546 -10.11428
 Alpha  occ. eigenvalues --  -10.09943 -10.09842  -0.85594  -0.74049  -0.70245
 Alpha  occ. eigenvalues --   -0.69945  -0.56234  -0.55084  -0.52519  -0.51395
 Alpha  occ. eigenvalues --   -0.45593  -0.43196  -0.40437  -0.39785  -0.37535
 Alpha  occ. eigenvalues --   -0.36077  -0.35537  -0.33615  -0.30164  -0.23101
 Alpha  occ. eigenvalues --   -0.21445
 Alpha virt. eigenvalues --   -0.00694   0.04261   0.10478   0.12250   0.15335
 Alpha virt. eigenvalues --    0.16738   0.17449   0.17985   0.19238   0.19547
 Alpha virt. eigenvalues --    0.20405   0.22475   0.22998   0.26248   0.28899
 Alpha virt. eigenvalues --    0.37676   0.37758   0.41020   0.47047   0.65040
 Alpha virt. eigenvalues --    0.67621   0.71306   0.71502   0.72663   0.74410
 Alpha virt. eigenvalues --    0.76295   0.77545   0.78238   0.79903   0.82676
 Alpha virt. eigenvalues --    0.85898   0.87147   0.87496   0.95101   0.97448
 Alpha virt. eigenvalues --    0.98938   0.99881   1.02755   1.03075   1.04217
 Alpha virt. eigenvalues --    1.06107   1.08535   1.10480   1.12504   1.12722
 Alpha virt. eigenvalues --    1.16684   1.31403   1.36027   1.36668   1.40891
 Alpha virt. eigenvalues --    1.42219   1.58476   1.66424   1.92744   2.03553
 Alpha virt. eigenvalues --    2.13967   2.33743
          Condensed to atoms (all electrons):
               1          2          3          4          5          6
     1  C    5.276863   0.509018  -0.109770  -0.121197   0.390745  -0.037753
     2  C    0.509018   5.175617   0.407594  -0.109767  -0.036136   0.388839
     3  C   -0.109770   0.407594   5.175635   0.509013   0.004115  -0.033130
     4  C   -0.121197  -0.109767   0.509013   5.276896   0.003039   0.003736
     5  H    0.390745  -0.036136   0.004115   0.003039   0.498721  -0.002133
     6  H   -0.037753   0.388839  -0.033130   0.003736  -0.002133   0.502838
     7  H    0.003736  -0.033130   0.388839  -0.037753  -0.000052  -0.001072
     8  H    0.003040   0.004115  -0.036141   0.390741  -0.000035  -0.000052
     9  C    0.330732  -0.125014  -0.125018   0.330724  -0.032666   0.004399
    10  H   -0.037777   0.001043   0.001043  -0.037781   0.000188  -0.000126
    11  H   -0.032364   0.003464   0.003464  -0.032362  -0.000780  -0.000060
    12  C   -0.000822  -0.007105  -0.007102  -0.008219  -0.002146   0.000055
    13  H   -0.000542   0.000193  -0.000095   0.000137  -0.000025   0.000149
    14  H   -0.000372   0.000006   0.000044   0.000166   0.000170  -0.000001
    15  C   -0.008214  -0.007105  -0.007104  -0.000832  -0.000017  -0.000058
    16  H    0.000166   0.000044   0.000006  -0.000370  -0.000002  -0.000000
    17  H    0.000137  -0.000095   0.000192  -0.000544  -0.000001  -0.000002
               7          8          9         10         11         12
     1  C    0.003736   0.003040   0.330732  -0.037777  -0.032364  -0.000822
     2  C   -0.033130   0.004115  -0.125014   0.001043   0.003464  -0.007105
     3  C    0.388839  -0.036141  -0.125018   0.001043   0.003464  -0.007102
     4  C   -0.037753   0.390741   0.330724  -0.037781  -0.032362  -0.008219
     5  H   -0.000052  -0.000035  -0.032666   0.000188  -0.000780  -0.002146
     6  H   -0.001072  -0.000052   0.004399  -0.000126  -0.000060   0.000055
     7  H    0.502836  -0.002133   0.004399  -0.000126  -0.000060  -0.000058
     8  H   -0.002133   0.498740  -0.032671   0.000188  -0.000780  -0.000017
     9  C    0.004399  -0.032671   5.407955   0.340066   0.362657  -0.013935
    10  H   -0.000126   0.000188   0.340066   0.525856  -0.024028   0.000964
    11  H   -0.000060  -0.000780   0.362657  -0.024028   0.511998  -0.000329
    12  C   -0.000058  -0.000017  -0.013935   0.000964  -0.000329   5.184470
    13  H   -0.000002  -0.000001   0.000214  -0.000004   0.000025   0.383945
    14  H   -0.000000  -0.000002  -0.000510   0.000007   0.001230   0.380849
    15  C    0.000055  -0.002146  -0.013924   0.000964  -0.000332   0.551050
    16  H   -0.000001   0.000170  -0.000508   0.000006   0.001230  -0.049100
    17  H    0.000150  -0.000025   0.000214  -0.000004   0.000025  -0.044947
              13         14         15         16         17
     1  C   -0.000542  -0.000372  -0.008214   0.000166   0.000137
     2  C    0.000193   0.000006  -0.007105   0.000044  -0.000095
     3  C   -0.000095   0.000044  -0.007104   0.000006   0.000192
     4  C    0.000137   0.000166  -0.000832  -0.000370  -0.000544
     5  H   -0.000025   0.000170  -0.000017  -0.000002  -0.000001
     6  H    0.000149  -0.000001  -0.000058  -0.000000  -0.000002
     7  H   -0.000002  -0.000000   0.000055  -0.000001   0.000150
     8  H   -0.000001  -0.000002  -0.002146   0.000170  -0.000025
     9  C    0.000214  -0.000510  -0.013924  -0.000508   0.000214
    10  H   -0.000004   0.000007   0.000964   0.000006  -0.000004
    11  H    0.000025   0.001230  -0.000332   0.001230   0.000025
    12  C    0.383945   0.380849   0.551050  -0.049100  -0.044947
    13  H    0.513136  -0.032841  -0.044949   0.003338  -0.005108
    14  H   -0.032841   0.531098  -0.049088  -0.005329   0.003337
    15  C   -0.044949  -0.049088   5.184447   0.380848   0.383957
    16  H    0.003338  -0.005329   0.380848   0.531091  -0.032831
    17  H   -0.005108   0.003337   0.383957  -0.032831   0.513105
 Mulliken charges:
               1
     1  C   -0.165627
     2  C   -0.171582
     3  C   -0.171584
     4  C   -0.165628
     5  H    0.177015
     6  H    0.174371
     7  H    0.174372
     8  H    0.177009
     9  C   -0.437114
    10  H    0.229521
    11  H    0.207003
    12  C   -0.367554
    13  H    0.182431
    14  H    0.171236
    15  C   -0.367552
    16  H    0.171243
    17  H    0.182441
 Sum of Mulliken charges =  -0.00000
 Mulliken charges with hydrogens summed into heavy atoms:
               1
     1  C    0.011388
     2  C    0.002789
     3  C    0.002788
     4  C    0.011381
     9  C   -0.000590
    12  C   -0.013887
    15  C   -0.013869
 Electronic spatial extent (au):  <R**2>=            700.6330
 Charge=             -0.0000 electrons
 Dipole moment (field-independent basis, Debye):
    X=             -0.4729    Y=             -0.0001    Z=              0.5000  Tot=              0.6882
 Quadrupole moment (field-independent basis, Debye-Ang):
   XX=            -48.3750   YY=            -40.3055   ZZ=            -39.9626
   XY=             -0.0013   XZ=              1.5761   YZ=             -0.0002
 Traceless Quadrupole moment (field-independent basis, Debye-Ang):
   XX=             -5.4940   YY=              2.5755   ZZ=              2.9184
   XY=             -0.0013   XZ=              1.5761   YZ=             -0.0002
 Octapole moment (field-independent basis, Debye-Ang**2):
  XXX=             -5.1305  YYY=             -0.0006  ZZZ=             -1.0681  XYY=              0.4571
  XXY=             -0.0022  XXZ=              2.0470  XZZ=             -2.2038  YZZ=              0.0011
  YYZ=             -0.0420  XYZ=             -0.0004
 Hexadecapole moment (field-independent basis, Debye-Ang**3):
 XXXX=           -517.5431 YYYY=           -252.3104 ZZZZ=           -214.5792 XXXY=             -0.0109
 XXXZ=              8.8328 YYYX=             -0.0060 YYYZ=              0.0014 ZZZX=              4.7287
 ZZZY=              0.0009 XXYY=           -122.2597 XXZZ=           -105.6408 YYZZ=            -75.6207
 XXYZ=             -0.0038 YYXZ=              3.3848 ZZXY=              0.0002
 N-N= 2.873521591878D+02 E-N=-1.202101939320D+03  KE= 2.688140126467D+02
 1\1\GINC-TACHAS\FOpt\RB3LYP\3-21G\C7H10\LEOS\20-Oct-2019\0\\# opt=modr
 edundant b3lyp/3-21g geom=connectivity\\Title Card Required\\0,1\C,-0.
 6890973437,1.1801532701,-0.3231255513\C,-1.10520317,0.7255830866,0.890
 6705896\C,-1.1050855695,-0.7318516666,0.8855198708\C,-0.688845093,-1.1
 777644544,-0.3314431239\H,-0.6165960876,2.2121854778,-0.6357857988\H,-
 1.3392769482,1.3345851026,1.7529102905\H,-1.3390394411,-1.3469699848,1
 .7434395008\H,-0.6164599,-2.2075638413,-0.6514246208\C,-0.6048703996,0
 .0045533632,-1.2818182732\H,-1.5199674654,0.0066022155,-1.9005436311\H
 ,0.2564399013,0.0070380429,-1.9483160791\C,1.8167783806,0.6697528619,0
 .1460005345\H,1.7251955924,1.2372899038,1.0635595179\H,2.0028283223,1.
 2484438902,-0.7530281769\C,1.8168921103,-0.6704427044,0.1417441283\H,2
 .0023593112,-1.243274734,-0.7611470377\H,1.72532687,-1.2438474194,1.05
 56365102\\Version=ES64L-G16RevB.01\State=1-A\HF=-271.1855982\RMSD=7.82
 8e-09\RMSF=2.174e-03\Dipole=-0.195431,0.0006294,-0.1873987\Quadrupole=
 -4.183871,1.9148631,2.2690079,0.0033505,-0.8616739,-0.0013689\PG=C01 [
 X(C7H10)]\\@


 SUCCESS IS COUNTED SWEETEST
 BY THOSE WHO NE'ER SUCCEED.
 TO COMPREHEND NECTAR
 REQUIRES SOREST NEED.
           EMILY DICKINSON
 Job cpu time:       0 days  0 hours  4 minutes 56.5 seconds.
 Elapsed time:       0 days  0 hours  2 minutes 28.9 seconds.
 File lengths (MBytes):  RWF=     10 Int=      0 D2E=      0 Chk=      2 Scr=      1
 Normal termination of Gaussian 16 at Sun Oct 20 19:21:11 2019.
