 Entering Gaussian System, Link 0=g16
 Input=/home/leos/jsmolpage/PDB/Ciclo/C2.7.com
 Output=/home/leos/jsmolpage/PDB/Ciclo/C2.7.log
 Initial command:
 /opt/g16/l1.exe "/tmp/Gau-6560.inp" -scrdir="/tmp/"
 Entering Link 1 = /opt/g16/l1.exe PID=      6563.
  
 Copyright (c) 1988-2017, Gaussian, Inc.  All Rights Reserved.
  
 This is part of the Gaussian(R) 16 program.  It is based on
 the Gaussian(R) 09 system (copyright 2009, Gaussian, Inc.),
 the Gaussian(R) 03 system (copyright 2003, Gaussian, Inc.),
 the Gaussian(R) 98 system (copyright 1998, Gaussian, Inc.),
 the Gaussian(R) 94 system (copyright 1995, Gaussian, Inc.),
 the Gaussian 92(TM) system (copyright 1992, Gaussian, Inc.),
 the Gaussian 90(TM) system (copyright 1990, Gaussian, Inc.),
 the Gaussian 88(TM) system (copyright 1988, Gaussian, Inc.),
 the Gaussian 86(TM) system (copyright 1986, Carnegie Mellon
 University), and the Gaussian 82(TM) system (copyright 1983,
 Carnegie Mellon University). Gaussian is a federally registered
 trademark of Gaussian, Inc.
  
 This software contains proprietary and confidential information,
 including trade secrets, belonging to Gaussian, Inc.
  
 This software is provided under written license and may be
 used, copied, transmitted, or stored only in accord with that
 written license.
  
 The following legend is applicable only to US Government
 contracts under FAR:
  
                    RESTRICTED RIGHTS LEGEND
  
 Use, reproduction and disclosure by the US Government is
 subject to restrictions as set forth in subparagraphs (a)
 and (c) of the Commercial Computer Software - Restricted
 Rights clause in FAR 52.227-19.
  
 Gaussian, Inc.
 340 Quinnipiac St., Bldg. 40, Wallingford CT 06492
  
  
 ---------------------------------------------------------------
 Warning -- This program may not be used in any manner that
 competes with the business of Gaussian, Inc. or will provide
 assistance to any competitor of Gaussian, Inc.  The licensee
 of this program is prohibited from giving any competitor of
 Gaussian, Inc. access to this program.  By using this program,
 the user acknowledges that Gaussian, Inc. is engaged in the
 business of creating and licensing software in the field of
 computational chemistry and represents and warrants to the
 licensee that it is not a competitor of Gaussian, Inc. and that
 it will not use this program in any manner prohibited above.
 ---------------------------------------------------------------
  

 Cite this work as:
 Gaussian 16, Revision B.01,
 M. J. Frisch, G. W. Trucks, H. B. Schlegel, G. E. Scuseria, 
 M. A. Robb, J. R. Cheeseman, G. Scalmani, V. Barone, 
 G. A. Petersson, H. Nakatsuji, X. Li, M. Caricato, A. V. Marenich, 
 J. Bloino, B. G. Janesko, R. Gomperts, B. Mennucci, H. P. Hratchian, 
 J. V. Ortiz, A. F. Izmaylov, J. L. Sonnenberg, D. Williams-Young, 
 F. Ding, F. Lipparini, F. Egidi, J. Goings, B. Peng, A. Petrone, 
 T. Henderson, D. Ranasinghe, V. G. Zakrzewski, J. Gao, N. Rega, 
 G. Zheng, W. Liang, M. Hada, M. Ehara, K. Toyota, R. Fukuda, 
 J. Hasegawa, M. Ishida, T. Nakajima, Y. Honda, O. Kitao, H. Nakai, 
 T. Vreven, K. Throssell, J. A. Montgomery, Jr., J. E. Peralta, 
 F. Ogliaro, M. J. Bearpark, J. J. Heyd, E. N. Brothers, K. N. Kudin, 
 V. N. Staroverov, T. A. Keith, R. Kobayashi, J. Normand, 
 K. Raghavachari, A. P. Rendell, J. C. Burant, S. S. Iyengar, 
 J. Tomasi, M. Cossi, J. M. Millam, M. Klene, C. Adamo, R. Cammi, 
 J. W. Ochterski, R. L. Martin, K. Morokuma, O. Farkas, 
 J. B. Foresman, and D. J. Fox, Gaussian, Inc., Wallingford CT, 2016.
 
 ******************************************
 Gaussian 16:  ES64L-G16RevB.01 20-Dec-2017
                20-Oct-2019 
 ******************************************
 %nprocshared=2
 Will use up to    2 processors via shared memory.
 %mem=6GB
 %chk=C3.chk
 ------------------------------------------------
 # opt=modredundant b3lyp/3-21g geom=connectivity
 ------------------------------------------------
 1/18=120,19=15,26=3,38=1,57=2/1,3;
 2/9=110,12=2,17=6,18=5,40=1/2;
 3/5=5,11=2,25=1,30=1,71=1,74=-5/1,2,3;
 4//1;
 5/5=2,38=5/2;
 6/7=2,8=2,9=2,10=2,28=1/1;
 7//1,2,3,16;
 1/18=20,19=15,26=3/3(2);
 2/9=110/2;
 99//99;
 2/9=110/2;
 3/5=5,11=2,25=1,30=1,71=1,74=-5/1,2,3;
 4/5=5,16=3,69=1/1;
 5/5=2,38=5/2;
 7//1,2,3,16;
 1/18=20,19=15,26=3/3(-5);
 2/9=110/2;
 6/7=2,8=2,9=2,10=2,19=2,28=1/1;
 99/9=1/99;
 -------------------
 Title Card Required
 -------------------
 Symbolic Z-matrix:
 Charge =  0 Multiplicity = 1
 C                    -0.79369   1.18537  -0.33569 
 C                    -1.11924   0.73143   0.89728 
 C                    -1.11909  -0.73982   0.89047 
 C                    -0.79293  -1.18231  -0.34652 
 H                    -0.72426   2.21635  -0.65178 
 H                    -1.32329   1.33641   1.76992 
 H                    -1.32313  -1.35292   1.75743 
 H                    -0.7233   -2.21038  -0.67191 
 C                    -0.66368   0.00577  -1.28383 
 H                    -1.50946   0.00868  -1.99091 
 H                     0.26287   0.00925  -1.8612 
 C                     1.82069   0.70144   0.13422 
 H                     1.84769   1.23853   1.0734 
 H                     2.2045    1.24206  -0.73138 
 C                     1.82026  -0.70239   0.13399 
 H                     2.20406  -1.24443  -0.73004 
 H                     1.84698  -1.23871   1.0746 
 
 Add virtual bond connecting atoms C12        and C1         Dist= 5.10D+00.
 Add virtual bond connecting atoms C12        and H11        Dist= 4.96D+00.
 Add virtual bond connecting atoms H14        and H11        Dist= 4.84D+00.
 Add virtual bond connecting atoms C15        and C4         Dist= 5.10D+00.
 Add virtual bond connecting atoms C15        and H11        Dist= 4.97D+00.
 The following ModRedundant input section has been read:
 B       4      15 F                                                           
 B       1      12 F                                                           
 

 GradGradGradGradGradGradGradGradGradGradGradGradGradGradGradGradGradGrad
 Berny optimization.
 Initialization pass.
                           ----------------------------
                           !    Initial Parameters    !
                           ! (Angstroms and Degrees)  !
 --------------------------                            --------------------------
 ! Name  Definition              Value          Derivative Info.                !
 --------------------------------------------------------------------------------
 ! R1    R(1,2)                  1.3536         estimate D2E/DX2                !
 ! R2    R(1,5)                  1.0806         estimate D2E/DX2                !
 ! R3    R(1,9)                  1.519          estimate D2E/DX2                !
 ! R4    R(1,12)                 2.7            Frozen                          !
 ! R5    R(2,3)                  1.4713         estimate D2E/DX2                !
 ! R6    R(2,6)                  1.0813         estimate D2E/DX2                !
 ! R7    R(3,4)                  1.3536         estimate D2E/DX2                !
 ! R8    R(3,7)                  1.0813         estimate D2E/DX2                !
 ! R9    R(4,8)                  1.0806         estimate D2E/DX2                !
 ! R10   R(4,9)                  1.5188         estimate D2E/DX2                !
 ! R11   R(4,15)                 2.7            Frozen                          !
 ! R12   R(9,10)                 1.1024         estimate D2E/DX2                !
 ! R13   R(9,11)                 1.0917         estimate D2E/DX2                !
 ! R14   R(11,12)                2.6244         estimate D2E/DX2                !
 ! R15   R(11,14)                2.5625         estimate D2E/DX2                !
 ! R16   R(11,15)                2.6292         estimate D2E/DX2                !
 ! R17   R(12,13)                1.0823         estimate D2E/DX2                !
 ! R18   R(12,14)                1.0903         estimate D2E/DX2                !
 ! R19   R(12,15)                1.4038         estimate D2E/DX2                !
 ! R20   R(15,16)                1.0898         estimate D2E/DX2                !
 ! R21   R(15,17)                1.0831         estimate D2E/DX2                !
 ! A1    A(2,1,5)              127.0035         estimate D2E/DX2                !
 ! A2    A(2,1,9)              109.191          estimate D2E/DX2                !
 ! A3    A(2,1,12)              90.816          estimate D2E/DX2                !
 ! A4    A(5,1,9)              123.5619         estimate D2E/DX2                !
 ! A5    A(5,1,12)              99.1894         estimate D2E/DX2                !
 ! A6    A(9,1,12)              83.4866         estimate D2E/DX2                !
 ! A7    A(1,2,3)              109.3362         estimate D2E/DX2                !
 ! A8    A(1,2,6)              126.362          estimate D2E/DX2                !
 ! A9    A(3,2,6)              124.281          estimate D2E/DX2                !
 ! A10   A(2,3,4)              109.3381         estimate D2E/DX2                !
 ! A11   A(2,3,7)              124.2827         estimate D2E/DX2                !
 ! A12   A(4,3,7)              126.358          estimate D2E/DX2                !
 ! A13   A(3,4,8)              126.9922         estimate D2E/DX2                !
 ! A14   A(3,4,9)              109.1931         estimate D2E/DX2                !
 ! A15   A(3,4,15)              90.7143         estimate D2E/DX2                !
 ! A16   A(8,4,9)              123.5673         estimate D2E/DX2                !
 ! A17   A(8,4,15)              99.2262         estimate D2E/DX2                !
 ! A18   A(9,4,15)              83.5936         estimate D2E/DX2                !
 ! A19   A(1,9,4)              102.4141         estimate D2E/DX2                !
 ! A20   A(1,9,10)             109.4285         estimate D2E/DX2                !
 ! A21   A(1,9,11)             113.5958         estimate D2E/DX2                !
 ! A22   A(4,9,10)             109.4265         estimate D2E/DX2                !
 ! A23   A(4,9,11)             113.6469         estimate D2E/DX2                !
 ! A24   A(10,9,11)            108.1745         estimate D2E/DX2                !
 ! A25   A(9,11,12)             95.8834         estimate D2E/DX2                !
 ! A26   A(9,11,14)            114.2943         estimate D2E/DX2                !
 ! A27   A(9,11,15)             95.7694         estimate D2E/DX2                !
 ! A28   A(14,11,15)            49.2165         estimate D2E/DX2                !
 ! A29   A(1,12,11)             48.7142         estimate D2E/DX2                !
 ! A30   A(1,12,13)             94.9471         estimate D2E/DX2                !
 ! A31   A(1,12,14)             96.5352         estimate D2E/DX2                !
 ! A32   A(1,12,15)            100.3064         estimate D2E/DX2                !
 ! A33   A(11,12,13)           143.66           estimate D2E/DX2                !
 ! A34   A(13,12,14)           115.7274         estimate D2E/DX2                !
 ! A35   A(13,12,15)           119.7634         estimate D2E/DX2                !
 ! A36   A(14,12,15)           119.7229         estimate D2E/DX2                !
 ! A37   A(4,15,11)             48.6816         estimate D2E/DX2                !
 ! A38   A(4,15,12)            100.2574         estimate D2E/DX2                !
 ! A39   A(4,15,16)             96.393          estimate D2E/DX2                !
 ! A40   A(4,15,17)             95.1876         estimate D2E/DX2                !
 ! A41   A(11,15,16)            75.0237         estimate D2E/DX2                !
 ! A42   A(11,15,17)           143.8687         estimate D2E/DX2                !
 ! A43   A(12,15,16)           119.8278         estimate D2E/DX2                !
 ! A44   A(12,15,17)           119.6713         estimate D2E/DX2                !
 ! A45   A(16,15,17)           115.6938         estimate D2E/DX2                !
 ! D1    D(5,1,2,3)            179.0338         estimate D2E/DX2                !
 ! D2    D(5,1,2,6)             -2.5772         estimate D2E/DX2                !
 ! D3    D(9,1,2,3)              4.5857         estimate D2E/DX2                !
 ! D4    D(9,1,2,6)           -177.0253         estimate D2E/DX2                !
 ! D5    D(12,1,2,3)           -78.8012         estimate D2E/DX2                !
 ! D6    D(12,1,2,6)            99.5878         estimate D2E/DX2                !
 ! D7    D(2,1,9,4)             -6.9373         estimate D2E/DX2                !
 ! D8    D(2,1,9,10)           109.0877         estimate D2E/DX2                !
 ! D9    D(2,1,9,11)          -129.9156         estimate D2E/DX2                !
 ! D10   D(5,1,9,4)            178.3828         estimate D2E/DX2                !
 ! D11   D(5,1,9,10)           -65.5922         estimate D2E/DX2                !
 ! D12   D(5,1,9,11)            55.4045         estimate D2E/DX2                !
 ! D13   D(12,1,9,4)            81.6553         estimate D2E/DX2                !
 ! D14   D(12,1,9,10)         -162.3197         estimate D2E/DX2                !
 ! D15   D(12,1,9,11)          -41.323          estimate D2E/DX2                !
 ! D16   D(2,1,12,11)          128.7951         estimate D2E/DX2                !
 ! D17   D(2,1,12,13)          -51.5635         estimate D2E/DX2                !
 ! D18   D(2,1,12,14)         -168.2097         estimate D2E/DX2                !
 ! D19   D(2,1,12,15)           69.9155         estimate D2E/DX2                !
 ! D20   D(5,1,12,11)         -103.4667         estimate D2E/DX2                !
 ! D21   D(5,1,12,13)           76.1747         estimate D2E/DX2                !
 ! D22   D(5,1,12,14)          -40.4715         estimate D2E/DX2                !
 ! D23   D(5,1,12,15)         -162.3463         estimate D2E/DX2                !
 ! D24   D(9,1,12,11)           19.5712         estimate D2E/DX2                !
 ! D25   D(9,1,12,13)         -160.7874         estimate D2E/DX2                !
 ! D26   D(9,1,12,14)           82.5664         estimate D2E/DX2                !
 ! D27   D(9,1,12,15)          -39.3084         estimate D2E/DX2                !
 ! D28   D(1,2,3,4)              0.024          estimate D2E/DX2                !
 ! D29   D(1,2,3,7)            178.4371         estimate D2E/DX2                !
 ! D30   D(6,2,3,4)           -178.4059         estimate D2E/DX2                !
 ! D31   D(6,2,3,7)              0.0072         estimate D2E/DX2                !
 ! D32   D(2,3,4,8)           -179.0282         estimate D2E/DX2                !
 ! D33   D(2,3,4,9)             -4.6237         estimate D2E/DX2                !
 ! D34   D(2,3,4,15)            78.841          estimate D2E/DX2                !
 ! D35   D(7,3,4,8)              2.6            estimate D2E/DX2                !
 ! D36   D(7,3,4,9)            177.0045         estimate D2E/DX2                !
 ! D37   D(7,3,4,15)           -99.5308         estimate D2E/DX2                !
 ! D38   D(3,4,9,1)              6.9522         estimate D2E/DX2                !
 ! D39   D(3,4,9,10)          -109.0743         estimate D2E/DX2                !
 ! D40   D(3,4,9,11)           129.8961         estimate D2E/DX2                !
 ! D41   D(8,4,9,1)           -178.4109         estimate D2E/DX2                !
 ! D42   D(8,4,9,10)            65.5627         estimate D2E/DX2                !
 ! D43   D(8,4,9,11)           -55.4669         estimate D2E/DX2                !
 ! D44   D(15,4,9,1)           -81.5694         estimate D2E/DX2                !
 ! D45   D(15,4,9,10)          162.4042         estimate D2E/DX2                !
 ! D46   D(15,4,9,11)           41.3746         estimate D2E/DX2                !
 ! D47   D(3,4,15,11)         -128.7923         estimate D2E/DX2                !
 ! D48   D(3,4,15,12)          -70.4545         estimate D2E/DX2                !
 ! D49   D(3,4,15,16)          167.6135         estimate D2E/DX2                !
 ! D50   D(3,4,15,17)           50.9826         estimate D2E/DX2                !
 ! D51   D(8,4,15,11)          103.4978         estimate D2E/DX2                !
 ! D52   D(8,4,15,12)          161.8356         estimate D2E/DX2                !
 ! D53   D(8,4,15,16)           39.9035         estimate D2E/DX2                !
 ! D54   D(8,4,15,17)          -76.7274         estimate D2E/DX2                !
 ! D55   D(9,4,15,11)          -19.5573         estimate D2E/DX2                !
 ! D56   D(9,4,15,12)           38.7805         estimate D2E/DX2                !
 ! D57   D(9,4,15,16)          -83.1515         estimate D2E/DX2                !
 ! D58   D(9,4,15,17)          160.2176         estimate D2E/DX2                !
 ! D59   D(1,9,11,12)           42.7271         estimate D2E/DX2                !
 ! D60   D(1,9,11,14)           26.32           estimate D2E/DX2                !
 ! D61   D(1,9,11,15)           73.8885         estimate D2E/DX2                !
 ! D62   D(4,9,11,12)          -73.8469         estimate D2E/DX2                !
 ! D63   D(4,9,11,14)          -90.254          estimate D2E/DX2                !
 ! D64   D(4,9,11,15)          -42.6855         estimate D2E/DX2                !
 ! D65   D(10,9,11,12)         164.4246         estimate D2E/DX2                !
 ! D66   D(10,9,11,14)         148.0175         estimate D2E/DX2                !
 ! D67   D(10,9,11,15)        -164.414          estimate D2E/DX2                !
 ! D68   D(9,11,12,1)          -27.7439         estimate D2E/DX2                !
 ! D69   D(9,11,12,13)         -28.3469         estimate D2E/DX2                !
 ! D70   D(9,11,15,4)           27.72           estimate D2E/DX2                !
 ! D71   D(9,11,15,16)         140.5892         estimate D2E/DX2                !
 ! D72   D(9,11,15,17)          27.3397         estimate D2E/DX2                !
 ! D73   D(14,11,15,4)         145.0403         estimate D2E/DX2                !
 ! D74   D(14,11,15,16)       -102.0905         estimate D2E/DX2                !
 ! D75   D(14,11,15,17)        144.6601         estimate D2E/DX2                !
 ! D76   D(1,12,15,4)            0.2275         estimate D2E/DX2                !
 ! D77   D(1,12,15,16)         103.7714         estimate D2E/DX2                !
 ! D78   D(1,12,15,17)        -101.8275         estimate D2E/DX2                !
 ! D79   D(13,12,15,4)         102.0547         estimate D2E/DX2                !
 ! D80   D(13,12,15,16)       -154.4014         estimate D2E/DX2                !
 ! D81   D(13,12,15,17)         -0.0004         estimate D2E/DX2                !
 ! D82   D(14,12,15,4)        -103.4835         estimate D2E/DX2                !
 ! D83   D(14,12,15,16)          0.0604         estimate D2E/DX2                !
 ! D84   D(14,12,15,17)        154.4614         estimate D2E/DX2                !
 --------------------------------------------------------------------------------
 Trust Radius=3.00D-01 FncErr=1.00D-07 GrdErr=1.00D-06 EigMax=2.50D+02 EigMin=1.00D-04
 Number of steps in this run=    102 maximum allowed number of steps=    102.
 GradGradGradGradGradGradGradGradGradGradGradGradGradGradGradGradGradGrad

                          Input orientation:                          
 ---------------------------------------------------------------------
 Center     Atomic      Atomic             Coordinates (Angstroms)
 Number     Number       Type             X           Y           Z
 ---------------------------------------------------------------------
      1          6           0       -0.793692    1.185372   -0.335690
      2          6           0       -1.119238    0.731433    0.897277
      3          6           0       -1.119089   -0.739821    0.890465
      4          6           0       -0.792932   -1.182308   -0.346523
      5          1           0       -0.724258    2.216348   -0.651778
      6          1           0       -1.323294    1.336406    1.769924
      7          1           0       -1.323127   -1.352915    1.757429
      8          1           0       -0.723300   -2.210380   -0.671910
      9          6           0       -0.663676    0.005770   -1.283827
     10          1           0       -1.509459    0.008682   -1.990906
     11          1           0        0.262871    0.009247   -1.861203
     12          6           0        1.820690    0.701437    0.134216
     13          1           0        1.847686    1.238528    1.073403
     14          1           0        2.204501    1.242055   -0.731379
     15          6           0        1.820263   -0.702391    0.133990
     16          1           0        2.204064   -1.244430   -0.730043
     17          1           0        1.846983   -1.238710    1.074604
 ---------------------------------------------------------------------
                    Distance matrix (angstroms):
                    1          2          3          4          5
     1  C    0.000000
     2  C    1.353606   0.000000
     3  C    2.305582   1.471270   0.000000
     4  C    2.367705   2.305628   1.353629   0.000000
     5  H    1.080576   2.181869   3.357580   3.413028   0.000000
     6  H    2.176442   1.081270   2.264038   3.332349   2.645332
     7  H    3.332319   2.264054   1.081269   2.176425   4.347708
     8  H    3.413082   3.357585   2.181790   1.080582   4.426774
     9  C    1.518989   2.343360   2.343257   1.518807   2.299959
    10  H    2.153291   3.002706   3.002490   2.153106   2.698813
    11  H    2.196995   3.168752   3.169005   2.197448   2.703410
    12  C    2.700000   3.037489   3.360274   3.257396   3.064230
    13  H    2.994202   3.015096   3.570586   3.853505   3.247657
    14  H    3.024722   3.736375   4.195767   3.874307   3.087590
    15  C    3.258375   3.358440   3.035365   2.700000   3.951082
    16  H    3.878916   4.194823   3.731491   3.022074   4.534113
    17  H    3.852047   3.565302   3.013367   2.998655   4.639946
                    6          7          8          9         10
     6  H    0.000000
     7  H    2.689350   0.000000
     8  H    4.347670   2.645133   0.000000
     9  C    3.395745   3.395606   2.299852   0.000000
    10  H    3.992662   3.992328   2.698524   1.102415   0.000000
    11  H    4.178798   4.179159   2.704384   1.091725   1.777070
    12  C    3.600467   4.091304   3.949735   2.943956   4.010729
    13  H    3.248051   4.151810   4.642311   3.658301   4.708814
    14  H    4.325593   5.037082   4.527125   3.171756   4.111097
    15  C    4.088388   3.597170   3.064836   2.946464   4.013459
    16  H    5.035157   4.317449   3.083164   3.177044   4.117076
    17  H    4.143109   3.244825   3.255888   3.662559   4.713708
                   11         12         13         14         15
    11  H    0.000000
    12  C    2.624429   0.000000
    13  H    3.554530   1.082251   0.000000
    14  H    2.562469   1.090336   1.839719   0.000000
    15  C    2.629200   1.403828   2.156482   2.162723   0.000000
    16  H    2.572831   2.163404   3.089418   2.486485   1.089800
    17  H    3.561709   2.156198   2.477238   3.089270   1.083100
                   16         17
    16  H    0.000000
    17  H    1.839644   0.000000
 Stoichiometry    C7H10
 Framework group  C1[X(C7H10)]
 Deg. of freedom    45
 Full point group                 C1      NOp   1
 Largest Abelian subgroup         C1      NOp   1
 Largest concise Abelian subgroup C1      NOp   1
                         Standard orientation:                         
 ---------------------------------------------------------------------
 Center     Atomic      Atomic             Coordinates (Angstroms)
 Number     Number       Type             X           Y           Z
 ---------------------------------------------------------------------
      1          6           0       -0.740830   -1.185287    0.345846
      2          6           0       -1.095823   -0.731862   -0.879158
      3          6           0       -1.095676    0.739395   -0.872920
      4          6           0       -0.740077    1.182397    0.355742
      5          1           0       -0.663740   -2.216133    0.660581
      6          1           0       -1.320624   -1.337195   -1.746441
      7          1           0       -1.320460    1.352130   -1.734993
      8          1           0       -0.662797    2.210603    0.678973
      9          6           0       -0.588307   -0.005303    1.290146
     10          1           0       -1.416936   -0.008026    2.017252
     11          1           0        0.351785   -0.008460    1.845197
     12          6           0        1.861511   -0.701266   -0.186642
     13          1           0        1.866097   -1.238720   -1.125998
     14          1           0        2.265976   -1.241508    0.669735
     15          6           0        1.860932    0.702561   -0.186949
     16          1           0        2.265228    1.244977    0.667448
     17          1           0        1.865087    1.238517   -1.128140
 ---------------------------------------------------------------------
 Rotational constants (GHZ):           3.6527016           2.3698583           2.1854564
 Standard basis: 3-21G (6D, 7F)
 There are    83 symmetry adapted cartesian basis functions of A   symmetry.
 There are    83 symmetry adapted basis functions of A   symmetry.
    83 basis functions,   135 primitive gaussians,    83 cartesian basis functions
    26 alpha electrons       26 beta electrons
       nuclear repulsion energy       283.8024449943 Hartrees.
 NAtoms=   17 NActive=   17 NUniq=   17 SFac= 1.00D+00 NAtFMM=   60 NAOKFM=F Big=F
 Integral buffers will be    131072 words long.
 Raffenetti 2 integral format.
 Two-electron integral symmetry is turned on.
 One-electron integrals computed using PRISM.
 NBasis=    83 RedAO= T EigKep=  4.43D-03  NBF=    83
 NBsUse=    83 1.00D-06 EigRej= -1.00D+00 NBFU=    83
 ExpMin= 1.83D-01 ExpMax= 1.72D+02 ExpMxC= 1.72D+02 IAcc=3 IRadAn=         5 AccDes= 0.00D+00
 Harris functional with IExCor=  402 and IRadAn=       5 diagonalized for initial guess.
 HarFok:  IExCor=  402 AccDes= 0.00D+00 IRadAn=         5 IDoV= 1 UseB2=F ITyADJ=14
 ICtDFT=  3500011 ScaDFX=  1.000000  1.000000  1.000000  1.000000
 FoFCou: FMM=F IPFlag=           0 FMFlag=      100000 FMFlg1=           0
         NFxFlg=           0 DoJE=T BraDBF=F KetDBF=T FulRan=T
         wScrn=  0.000000 ICntrl=       500 IOpCl=  0 I1Cent=   200000004 NGrid=           0
         NMat0=    1 NMatS0=      1 NMatT0=    0 NMatD0=    1 NMtDS0=    0 NMtDT0=    0
 Petite list used in FoFCou.
 Keep R1 ints in memory in canonical form, NReq=7891734.
 Requested convergence on RMS density matrix=1.00D-08 within 128 cycles.
 Requested convergence on MAX density matrix=1.00D-06.
 Requested convergence on             energy=1.00D-06.
 No special actions if energy rises.
 Integral accuracy reduced to 1.0D-05 until final iterations.
 Initial convergence to 1.0D-05 achieved.  Increase integral accuracy.
 SCF Done:  E(RB3LYP) =  -271.177127910     A.U. after   13 cycles
            NFock= 13  Conv=0.58D-08     -V/T= 2.0095

 **********************************************************************

            Population analysis using the SCF Density.

 **********************************************************************

 Orbital symmetries:
       Occupied  (A) (A) (A) (A) (A) (A) (A) (A) (A) (A) (A) (A)
                 (A) (A) (A) (A) (A) (A) (A) (A) (A) (A) (A) (A)
                 (A) (A)
       Virtual   (A) (A) (A) (A) (A) (A) (A) (A) (A) (A) (A) (A)
                 (A) (A) (A) (A) (A) (A) (A) (A) (A) (A) (A) (A)
                 (A) (A) (A) (A) (A) (A) (A) (A) (A) (A) (A) (A)
                 (A) (A) (A) (A) (A) (A) (A) (A) (A) (A) (A) (A)
                 (A) (A) (A) (A) (A) (A) (A) (A) (A)
 The electronic state is 1-A.
 Alpha  occ. eigenvalues --  -10.12049 -10.12020 -10.11952 -10.11556 -10.11440
 Alpha  occ. eigenvalues --  -10.10744 -10.10631  -0.85286  -0.72836  -0.70257
 Alpha  occ. eigenvalues --   -0.69656  -0.56407  -0.54815  -0.52505  -0.51211
 Alpha  occ. eigenvalues --   -0.44906  -0.43046  -0.39930  -0.39291  -0.37348
 Alpha  occ. eigenvalues --   -0.35588  -0.35405  -0.34132  -0.29871  -0.22301
 Alpha  occ. eigenvalues --   -0.21597
 Alpha virt. eigenvalues --   -0.00483   0.02234   0.10180   0.12826   0.15282
 Alpha virt. eigenvalues --    0.16862   0.18134   0.18257   0.19448   0.19640
 Alpha virt. eigenvalues --    0.20175   0.21973   0.22411   0.26177   0.28251
 Alpha virt. eigenvalues --    0.34997   0.38623   0.40819   0.47502   0.66706
 Alpha virt. eigenvalues --    0.67335   0.70575   0.71244   0.72882   0.73663
 Alpha virt. eigenvalues --    0.76520   0.76699   0.78952   0.80732   0.82254
 Alpha virt. eigenvalues --    0.85435   0.86294   0.88035   0.95246   0.95988
 Alpha virt. eigenvalues --    0.99044   0.99702   1.02179   1.03283   1.04858
 Alpha virt. eigenvalues --    1.06202   1.08406   1.08903   1.10112   1.11325
 Alpha virt. eigenvalues --    1.16797   1.30479   1.32165   1.36734   1.37332
 Alpha virt. eigenvalues --    1.41997   1.58228   1.65919   1.88797   2.04765
 Alpha virt. eigenvalues --    2.16836   2.19723
          Condensed to atoms (all electrons):
               1          2          3          4          5          6
     1  C    5.243461   0.514084  -0.109075  -0.114521   0.390741  -0.037773
     2  C    0.514084   5.168019   0.406358  -0.109065  -0.035738   0.387768
     3  C   -0.109075   0.406358   5.168063   0.514053   0.003976  -0.032411
     4  C   -0.114521  -0.109065   0.514053   5.243397   0.002879   0.003578
     5  H    0.390741  -0.035738   0.003976   0.002879   0.495721  -0.002107
     6  H   -0.037773   0.387768  -0.032411   0.003578  -0.002107   0.503279
     7  H    0.003579  -0.032405   0.387762  -0.037774  -0.000052  -0.000864
     8  H    0.002880   0.003976  -0.035743   0.390743  -0.000032  -0.000052
     9  C    0.333978  -0.124029  -0.124060   0.333982  -0.032172   0.004520
    10  H   -0.037397   0.002009   0.002002  -0.037403  -0.000019  -0.000109
    11  H   -0.033260   0.002898   0.002898  -0.033199  -0.000531  -0.000071
    12  C    0.007227  -0.005117  -0.006119  -0.007247  -0.001232   0.000038
    13  H   -0.000807  -0.000223  -0.000019   0.000114  -0.000008   0.000093
    14  H   -0.000271  -0.000005   0.000060   0.000192   0.000142   0.000000
    15  C   -0.007223  -0.006138  -0.005137   0.007261  -0.000038  -0.000032
    16  H    0.000193   0.000060  -0.000011  -0.000281  -0.000000  -0.000000
    17  H    0.000112  -0.000017  -0.000219  -0.000816  -0.000000  -0.000001
               7          8          9         10         11         12
     1  C    0.003579   0.002880   0.333978  -0.037397  -0.033260   0.007227
     2  C   -0.032405   0.003976  -0.124029   0.002009   0.002898  -0.005117
     3  C    0.387762  -0.035743  -0.124060   0.002002   0.002898  -0.006119
     4  C   -0.037774   0.390743   0.333982  -0.037403  -0.033199  -0.007247
     5  H   -0.000052  -0.000032  -0.032172  -0.000019  -0.000531  -0.001232
     6  H   -0.000864  -0.000052   0.004520  -0.000109  -0.000071   0.000038
     7  H    0.503257  -0.002108   0.004521  -0.000109  -0.000071  -0.000032
     8  H   -0.002108   0.495730  -0.032178  -0.000019  -0.000531  -0.000038
     9  C    0.004521  -0.032178   5.403105   0.341148   0.356999  -0.012845
    10  H   -0.000109  -0.000019   0.341148   0.531733  -0.023674   0.000791
    11  H   -0.000071  -0.000531   0.356999  -0.023674   0.506726   0.001027
    12  C   -0.000032  -0.000038  -0.012845   0.000791   0.001027   5.204041
    13  H   -0.000001  -0.000000   0.000214  -0.000003   0.000062   0.380980
    14  H   -0.000000  -0.000000  -0.000431   0.000008   0.000599   0.375230
    15  C    0.000037  -0.001234  -0.012684   0.000785   0.000980   0.527765
    16  H    0.000000   0.000146  -0.000409   0.000008   0.000568  -0.045867
    17  H    0.000094  -0.000009   0.000212  -0.000003   0.000063  -0.043203
              13         14         15         16         17
     1  C   -0.000807  -0.000271  -0.007223   0.000193   0.000112
     2  C   -0.000223  -0.000005  -0.006138   0.000060  -0.000017
     3  C   -0.000019   0.000060  -0.005137  -0.000011  -0.000219
     4  C    0.000114   0.000192   0.007261  -0.000281  -0.000816
     5  H   -0.000008   0.000142  -0.000038  -0.000000  -0.000000
     6  H    0.000093   0.000000  -0.000032  -0.000000  -0.000001
     7  H   -0.000001  -0.000000   0.000037   0.000000   0.000094
     8  H   -0.000000  -0.000000  -0.001234   0.000146  -0.000009
     9  C    0.000214  -0.000431  -0.012684  -0.000409   0.000212
    10  H   -0.000003   0.000008   0.000785   0.000008  -0.000003
    11  H    0.000062   0.000599   0.000980   0.000568   0.000063
    12  C    0.380980   0.375230   0.527765  -0.045867  -0.043203
    13  H    0.517281  -0.034115  -0.043091   0.003152  -0.004413
    14  H   -0.034115   0.535178  -0.046007  -0.004462   0.003164
    15  C   -0.043091  -0.046007   5.203678   0.375326   0.380823
    16  H    0.003152  -0.004462   0.375326   0.534750  -0.034143
    17  H   -0.004413   0.003164   0.380823  -0.034143   0.517860
 Mulliken charges:
               1
     1  C   -0.155929
     2  C   -0.172436
     3  C   -0.172379
     4  C   -0.155894
     5  H    0.178470
     6  H    0.174142
     7  H    0.174164
     8  H    0.178469
     9  C   -0.439873
    10  H    0.220251
    11  H    0.218517
    12  C   -0.375401
    13  H    0.180785
    14  H    0.170717
    15  C   -0.375073
    16  H    0.170970
    17  H    0.180497
 Sum of Mulliken charges =  -0.00000
 Mulliken charges with hydrogens summed into heavy atoms:
               1
     1  C    0.022541
     2  C    0.001706
     3  C    0.001786
     4  C    0.022575
     9  C   -0.001104
    12  C   -0.023898
    15  C   -0.023606
 Electronic spatial extent (au):  <R**2>=            723.5732
 Charge=             -0.0000 electrons
 Dipole moment (field-independent basis, Debye):
    X=             -0.0662    Y=             -0.0007    Z=              0.3668  Tot=              0.3727
 Quadrupole moment (field-independent basis, Debye-Ang):
   XX=            -46.9944   YY=            -40.4785   ZZ=            -39.8369
   XY=             -0.0023   XZ=              1.1674   YZ=             -0.0001
 Traceless Quadrupole moment (field-independent basis, Debye-Ang):
   XX=             -4.5578   YY=              1.9581   ZZ=              2.5997
   XY=             -0.0023   XZ=              1.1674   YZ=             -0.0001
 Octapole moment (field-independent basis, Debye-Ang**2):
  XXX=              0.8259  YYY=              0.0004  ZZZ=             -1.8334  XYY=              0.5775
  XXY=              0.0075  XXZ=              1.9943  XZZ=             -1.6931  YZZ=              0.0049
  YYZ=             -0.0946  XYZ=              0.0148
 Hexadecapole moment (field-independent basis, Debye-Ang**3):
 XXXX=           -532.5788 YYYY=           -257.0631 ZZZZ=           -215.6329 XXXY=              0.0111
 XXXZ=              7.0567 YYYX=             -0.0160 YYYZ=              0.0333 ZZZX=              3.5444
 ZZZY=              0.0195 XXYY=           -124.4283 XXZZ=           -109.0979 YYZZ=            -76.3642
 XXYZ=             -0.0228 YYXZ=              2.2878 ZZXY=             -0.0045
 N-N= 2.838024449943D+02 E-N=-1.194910031374D+03  KE= 2.686269772056D+02
 Calling FoFJK, ICntrl=      2127 FMM=F ISym2X=0 I1Cent= 0 IOpClX= 0 NMat=1 NMatS=1 NMatT=0.
 ***** Axes restored to original set *****
 -------------------------------------------------------------------
 Center     Atomic                   Forces (Hartrees/Bohr)
 Number     Number              X              Y              Z
 -------------------------------------------------------------------
      1        6           0.002417212    0.000571299   -0.003142331
      2        6          -0.004115329   -0.006703318    0.003444560
      3        6          -0.004037207    0.006685458    0.003529992
      4        6           0.002380232   -0.000605931   -0.003127378
      5        1          -0.000368840   -0.000165082   -0.000084997
      6        1           0.000236647   -0.000050256    0.000040985
      7        1           0.000240629    0.000050585    0.000042937
      8        1          -0.000363778    0.000168905   -0.000088652
      9        6          -0.003520122    0.000089033   -0.003495524
     10        1          -0.000903810   -0.000005306    0.000172122
     11        1          -0.001925799   -0.000051897   -0.000037888
     12        6           0.024045107   -0.058687698    0.001900890
     13        1          -0.009098944    0.001920143    0.000071982
     14        1          -0.009929388    0.000061363   -0.000733355
     15        6           0.023924643    0.058539988    0.003001217
     16        1          -0.009828080   -0.000084848   -0.001071013
     17        1          -0.009153175   -0.001732438   -0.000423547
 -------------------------------------------------------------------
 Cartesian Forces:  Max     0.058687698 RMS     0.012995748

 GradGradGradGradGradGradGradGradGradGradGradGradGradGradGradGradGradGrad
 Berny optimization.
 FormGI is forming the generalized inverse of G from B-inverse, IUseBI=4.
 Internal  Forces:  Max     0.043165031 RMS     0.004341454
 Search for a local minimum.
 Step number   1 out of a maximum of  102
 All quantities printed in internal units (Hartrees-Bohrs-Radians)
 Mixed Optimization -- RFO/linear search
 Second derivative matrix not updated -- first step.
 ITU=  0
     Eigenvalues ---    0.00893   0.01757   0.01934   0.02161   0.02270
     Eigenvalues ---    0.02355   0.02770   0.02955   0.03021   0.03769
     Eigenvalues ---    0.03903   0.04523   0.05235   0.05297   0.05601
     Eigenvalues ---    0.05973   0.06238   0.06671   0.06793   0.06840
     Eigenvalues ---    0.07463   0.09139   0.11167   0.12262   0.14029
     Eigenvalues ---    0.15985   0.15992   0.20854   0.26154   0.27298
     Eigenvalues ---    0.31339   0.32016   0.33416   0.34836   0.35622
     Eigenvalues ---    0.35724   0.35841   0.35841   0.35924   0.35925
     Eigenvalues ---    0.36951   0.45553   0.530061000.000001000.00000
     Eigenvalues --- 1000.000001000.000001000.000001000.000001000.00000
     Eigenvalues --- 1000.000001000.000001000.000001000.000001000.00000
     Eigenvalues --- 1000.000001000.000001000.000001000.000001000.00000
     Eigenvalues --- 1000.000001000.000001000.000001000.000001000.00000
     Eigenvalues --- 1000.000001000.000001000.000001000.000001000.00000
     Eigenvalues --- 1000.000001000.000001000.000001000.000001000.00000
     Eigenvalues --- 1000.000001000.000001000.000001000.000001000.00000
     Eigenvalues --- 1000.000001000.000001000.000001000.000001000.00000
     Eigenvalues --- 1000.000001000.000001000.000001000.000001000.00000
     Eigenvalues --- 1000.000001000.000001000.000001000.000001000.00000
     Eigenvalues --- 1000.000001000.000001000.000001000.000001000.00000
     Eigenvalues --- 1000.000001000.000001000.000001000.000001000.00000
     Eigenvalues --- 1000.000001000.000001000.000001000.000001000.00000
     Eigenvalues --- 1000.000001000.000001000.000001000.000001000.00000
     Eigenvalues --- 1000.000001000.000001000.000001000.000001000.00000
     Eigenvalues --- 1000.000001000.000001000.000001000.000001000.00000
     Eigenvalues --- 1000.000001000.000001000.000001000.000001000.00000
     Eigenvalues --- 1000.000001000.000001000.000001000.000001000.00000
     Eigenvalues --- 1000.000001000.000001000.000001000.000001000.00000
     Eigenvalues --- 1000.000001000.000001000.000001000.000001000.00000
     Eigenvalues --- 1000.000001000.000001000.000001000.000001000.00000
 RFO step:  Lambda=-1.04668608D-02 EMin= 8.92827075D-03
 Linear search not attempted -- first point.
 Iteration  1 RMS(Cart)=  0.01570680 RMS(Int)=  0.00055705
 Iteration  2 RMS(Cart)=  0.00037932 RMS(Int)=  0.00041435
 Iteration  3 RMS(Cart)=  0.00000011 RMS(Int)=  0.00041435
 Iteration  1 RMS(Cart)=  0.00000980 RMS(Int)=  0.00000431
 Iteration  2 RMS(Cart)=  0.00000247 RMS(Int)=  0.00000472
 Iteration  3 RMS(Cart)=  0.00000084 RMS(Int)=  0.00000502
 Variable       Old X    -DE/DX   Delta X   Delta X   Delta X     New X
                                 (Linear)    (Quad)   (Total)
    R1        2.55794   0.00353   0.00000   0.00742   0.00749   2.56544
    R2        2.04199  -0.00016   0.00000  -0.00042  -0.00042   2.04157
    R3        2.87047  -0.00116   0.00000  -0.00289  -0.00296   2.86751
    R4        5.10226   0.00645   0.00000   0.00000  -0.00000   5.10226
    R5        2.78030  -0.00862   0.00000  -0.01855  -0.01827   2.76202
    R6        2.04330  -0.00004   0.00000  -0.00011  -0.00011   2.04319
    R7        2.55799   0.00351   0.00000   0.00750   0.00761   2.56559
    R8        2.04330  -0.00004   0.00000  -0.00011  -0.00011   2.04319
    R9        2.04200  -0.00016   0.00000  -0.00043  -0.00043   2.04158
   R10        2.87013  -0.00159   0.00000  -0.00292  -0.00300   2.86713
   R11        5.10226   0.00683   0.00000   0.00000   0.00000   5.10226
   R12        2.08326   0.00058   0.00000   0.00169   0.00169   2.08495
   R13        2.06306  -0.00231   0.00000  -0.00174  -0.00164   2.06142
   R14        4.95945   0.00007   0.00000   0.02352   0.02355   4.98300
   R15        4.84236  -0.00475   0.00000  -0.06602  -0.06609   4.77627
   R16        4.96847  -0.00203   0.00000   0.02341   0.02333   4.99179
   R17        2.04516   0.00079   0.00000   0.00215   0.00215   2.04731
   R18        2.06044  -0.00058   0.00000  -0.00512  -0.00460   2.05584
   R19        2.65285  -0.04317   0.00000  -0.11374  -0.11404   2.53881
   R20        2.05942  -0.00257   0.00000  -0.00717  -0.00717   2.05226
   R21        2.04676   0.00027   0.00000   0.00072   0.00072   2.04749
    A1        2.21663  -0.00130   0.00000  -0.00371  -0.00369   2.21294
    A2        1.90574   0.00108   0.00000   0.00510   0.00484   1.91058
    A3        1.58504   0.00025   0.00000   0.01540   0.01537   1.60041
    A4        2.15656   0.00014   0.00000  -0.00385  -0.00395   2.15261
    A5        1.73118   0.00209   0.00000   0.00212   0.00206   1.73324
    A6        1.45712  -0.00172   0.00000   0.00832   0.00840   1.46552
    A7        1.90828  -0.00007   0.00000  -0.00251  -0.00269   1.90558
    A8        2.20543   0.00007   0.00000   0.00125   0.00129   2.20672
    A9        2.16911  -0.00005   0.00000   0.00087   0.00091   2.17003
   A10        1.90831  -0.00009   0.00000  -0.00235  -0.00251   1.90580
   A11        2.16914  -0.00004   0.00000   0.00078   0.00080   2.16995
   A12        2.20536   0.00009   0.00000   0.00117   0.00120   2.20656
   A13        2.21643  -0.00130   0.00000  -0.00386  -0.00385   2.21258
   A14        1.90578   0.00123   0.00000   0.00497   0.00469   1.91047
   A15        1.58326   0.00016   0.00000   0.01429   0.01421   1.59748
   A16        2.15666  -0.00001   0.00000  -0.00347  -0.00353   2.15313
   A17        1.73182   0.00256   0.00000   0.00275   0.00277   1.73459
   A18        1.45898  -0.00216   0.00000   0.00756   0.00760   1.46658
   A19        1.78746  -0.00252   0.00000  -0.01157  -0.01177   1.77569
   A20        1.90989   0.00146   0.00000   0.00818   0.00815   1.91804
   A21        1.98262   0.00073   0.00000  -0.00709  -0.00713   1.97549
   A22        1.90985   0.00193   0.00000   0.00800   0.00807   1.91792
   A23        1.98351  -0.00038   0.00000  -0.00555  -0.00561   1.97790
   A24        1.88800  -0.00106   0.00000   0.00815   0.00818   1.89618
   A25        1.67348   0.00085   0.00000  -0.00026  -0.00024   1.67324
   A26        1.99481  -0.00040   0.00000  -0.01069  -0.01095   1.98386
   A27        1.67149   0.00137   0.00000  -0.00131  -0.00129   1.67021
   A28        0.85899  -0.00720   0.00000  -0.01509  -0.01563   0.84336
   A29        0.85022  -0.00103   0.00000  -0.00485  -0.00486   0.84536
   A30        1.65714  -0.00393   0.00000  -0.03843  -0.03830   1.61884
   A31        1.68486  -0.00556   0.00000  -0.06003  -0.05962   1.62524
   A32        1.75068   0.00316   0.00000   0.00761   0.00748   1.75815
   A33        2.50734  -0.00497   0.00000  -0.04333  -0.04323   2.46411
   A34        2.01982  -0.00068   0.00000   0.01067   0.00767   2.02750
   A35        2.09027  -0.00058   0.00000   0.00716   0.00677   2.09704
   A36        2.08956   0.00383   0.00000   0.02047   0.01942   2.10898
   A37        0.84965  -0.00129   0.00000  -0.00441  -0.00442   0.84523
   A38        1.74982   0.00364   0.00000   0.01000   0.01010   1.75992
   A39        1.68237  -0.00503   0.00000  -0.05335  -0.05319   1.62919
   A40        1.66134  -0.00393   0.00000  -0.03838  -0.03834   1.62300
   A41        1.30941  -0.00372   0.00000  -0.03421  -0.03437   1.27504
   A42        2.51098  -0.00522   0.00000  -0.04277  -0.04275   2.46824
   A43        2.09139   0.00232   0.00000   0.02041   0.01959   2.11098
   A44        2.08866  -0.00207   0.00000   0.00661   0.00660   2.09526
   A45        2.01924   0.00196   0.00000   0.00739   0.00463   2.02387
    D1        3.12473   0.00093   0.00000   0.00007   0.00012   3.12485
    D2       -0.04498  -0.00079   0.00000  -0.01486  -0.01483  -0.05981
    D3        0.08004   0.00178   0.00000   0.02806   0.02813   0.10817
    D4       -3.08967   0.00005   0.00000   0.01312   0.01318  -3.07649
    D5       -1.37534   0.00354   0.00000   0.01401   0.01392  -1.36142
    D6        1.73814   0.00182   0.00000  -0.00092  -0.00103   1.73710
    D7       -0.12108  -0.00238   0.00000  -0.04156  -0.04146  -0.16254
    D8        1.90394  -0.00083   0.00000  -0.03482  -0.03481   1.86913
    D9       -2.26745  -0.00064   0.00000  -0.02324  -0.02326  -2.29071
   D10        3.11337  -0.00147   0.00000  -0.01473  -0.01461   3.09876
   D11       -1.14480   0.00008   0.00000  -0.00799  -0.00796  -1.15276
   D12        0.96699   0.00027   0.00000   0.00359   0.00359   0.97058
   D13        1.42515  -0.00285   0.00000  -0.02286  -0.02267   1.40248
   D14       -2.83301  -0.00130   0.00000  -0.01612  -0.01603  -2.84904
   D15       -0.72122  -0.00112   0.00000  -0.00454  -0.00447  -0.72569
   D16        2.24790   0.00136   0.00000   0.00561   0.00553   2.25343
   D17       -0.89995   0.00098   0.00000  -0.00126  -0.00106  -0.90101
   D18       -2.93581   0.00320   0.00000   0.00373   0.00308  -2.93273
   D19        1.22026  -0.00000   0.00000  -0.00244  -0.00252   1.21774
   D20       -1.80583   0.00039   0.00000   0.00544   0.00549  -1.80035
   D21        1.32950   0.00000   0.00000  -0.00143  -0.00110   1.32840
   D22       -0.70636   0.00223   0.00000   0.00356   0.00304  -0.70332
   D23       -2.83348  -0.00097   0.00000  -0.00261  -0.00256  -2.83604
   D24        0.34158   0.00026   0.00000   0.00246   0.00246   0.34404
   D25       -2.80627  -0.00012   0.00000  -0.00440  -0.00413  -2.81040
   D26        1.44106   0.00210   0.00000   0.00059   0.00001   1.44107
   D27       -0.68606  -0.00110   0.00000  -0.00558  -0.00559  -0.69165
   D28        0.00042  -0.00016   0.00000  -0.00012  -0.00013   0.00029
   D29        3.11432  -0.00171   0.00000  -0.01505  -0.01507   3.09925
   D30       -3.11377   0.00152   0.00000   0.01442   0.01442  -3.09935
   D31        0.00013  -0.00002   0.00000  -0.00050  -0.00051  -0.00039
   D32       -3.12463  -0.00068   0.00000  -0.00116  -0.00121  -3.12584
   D33       -0.08070  -0.00155   0.00000  -0.02787  -0.02793  -0.10863
   D34        1.37603  -0.00382   0.00000  -0.01501  -0.01498   1.36106
   D35        0.04538   0.00090   0.00000   0.01416   0.01412   0.05950
   D36        3.08931   0.00004   0.00000  -0.01255  -0.01259   3.07672
   D37       -1.73714  -0.00223   0.00000   0.00031   0.00036  -1.73678
   D38        0.12134   0.00228   0.00000   0.04147   0.04136   0.16270
   D39       -1.90370   0.00107   0.00000   0.03461   0.03465  -1.86905
   D40        2.26711   0.00130   0.00000   0.02210   0.02210   2.28921
   D41       -3.11386   0.00136   0.00000   0.01582   0.01570  -3.09816
   D42        1.14429   0.00015   0.00000   0.00895   0.00899   1.15328
   D43       -0.96808   0.00037   0.00000  -0.00355  -0.00356  -0.97164
   D44       -1.42365   0.00302   0.00000   0.02419   0.02407  -1.39958
   D45        2.83449   0.00181   0.00000   0.01732   0.01736   2.85185
   D46        0.72212   0.00204   0.00000   0.00482   0.00481   0.72693
   D47       -2.24785  -0.00231   0.00000  -0.00538  -0.00530  -2.25315
   D48       -1.22966   0.00046   0.00000  -0.00012  -0.00020  -1.22986
   D49        2.92541  -0.00143   0.00000  -0.00880  -0.00823   2.91718
   D50        0.88981  -0.00196   0.00000  -0.00136  -0.00140   0.88841
   D51        1.80638  -0.00137   0.00000  -0.00490  -0.00493   1.80144
   D52        2.82456   0.00140   0.00000   0.00036   0.00017   2.82473
   D53        0.69645  -0.00049   0.00000  -0.00832  -0.00786   0.68858
   D54       -1.33915  -0.00102   0.00000  -0.00087  -0.00104  -1.34018
   D55       -0.34134  -0.00103   0.00000  -0.00221  -0.00224  -0.34358
   D56        0.67685   0.00173   0.00000   0.00305   0.00286   0.67970
   D57       -1.45127  -0.00015   0.00000  -0.00563  -0.00517  -1.45644
   D58        2.79632  -0.00068   0.00000   0.00182   0.00165   2.79798
   D59        0.74573   0.00223   0.00000   0.00124   0.00113   0.74686
   D60        0.45937   0.00065   0.00000  -0.01055  -0.01007   0.44930
   D61        1.28960  -0.00667   0.00000  -0.02536  -0.02535   1.26425
   D62       -1.28887   0.00525   0.00000   0.02523   0.02515  -1.26372
   D63       -1.57523   0.00367   0.00000   0.01344   0.01395  -1.56128
   D64       -0.74500  -0.00365   0.00000  -0.00136  -0.00133  -0.74633
   D65        2.86975   0.00380   0.00000   0.01284   0.01268   2.88243
   D66        2.58339   0.00223   0.00000   0.00105   0.00148   2.58487
   D67       -2.86957  -0.00509   0.00000  -0.01376  -0.01380  -2.88337
   D68       -0.48422  -0.00070   0.00000  -0.00405  -0.00400  -0.48822
   D69       -0.49475  -0.00127   0.00000  -0.01500  -0.01395  -0.50869
   D70        0.48380   0.00177   0.00000   0.00356   0.00356   0.48736
   D71        2.45374  -0.00090   0.00000  -0.03634  -0.03611   2.41764
   D72        0.47717   0.00240   0.00000   0.01072   0.01013   0.48730
   D73        2.53143   0.00235   0.00000  -0.00478  -0.00502   2.52641
   D74       -1.78181  -0.00031   0.00000  -0.04468  -0.04468  -1.82650
   D75        2.52480   0.00298   0.00000   0.00238   0.00156   2.52635
   D76        0.00397  -0.00022   0.00000   0.00110   0.00118   0.00515
   D77        1.81115  -0.00319   0.00000  -0.04983  -0.05009   1.76106
   D78       -1.77723   0.00284   0.00000   0.03858   0.03861  -1.73862
   D79        1.78119  -0.00311   0.00000  -0.03778  -0.03781   1.74338
   D80       -2.69481  -0.00608   0.00000  -0.08871  -0.08908  -2.78389
   D81       -0.00001  -0.00005   0.00000  -0.00030  -0.00038  -0.00039
   D82       -1.80613   0.00319   0.00000   0.06146   0.06185  -1.74428
   D83        0.00105   0.00022   0.00000   0.01053   0.01058   0.01164
   D84        2.69586   0.00625   0.00000   0.09894   0.09928   2.79515
         Item               Value     Threshold  Converged?
 Maximum Force            0.042338     0.000450     NO 
 RMS     Force            0.004287     0.000300     NO 
 Maximum Displacement     0.073753     0.001800     NO 
 RMS     Displacement     0.015790     0.001200     NO 
 Predicted change in Energy=-5.658163D-03
 GradGradGradGradGradGradGradGradGradGradGradGradGradGradGradGradGradGrad

                          Input orientation:                          
 ---------------------------------------------------------------------
 Center     Atomic      Atomic             Coordinates (Angstroms)
 Number     Number       Type             X           Y           Z
 ---------------------------------------------------------------------
      1          6           0       -0.771257    1.178304   -0.332333
      2          6           0       -1.121405    0.726082    0.898883
      3          6           0       -1.121945   -0.735499    0.891418
      4          6           0       -0.771776   -1.175682   -0.344238
      5          1           0       -0.695589    2.209499   -0.645496
      6          1           0       -1.328644    1.331526    1.770381
      7          1           0       -1.329308   -1.349589    1.756814
      8          1           0       -0.696110   -2.203888   -0.667099
      9          6           0       -0.662336    0.005966   -1.289586
     10          1           0       -1.517669    0.009564   -1.986496
     11          1           0        0.260901    0.010218   -1.870602
     12          6           0        1.839105    0.671416    0.135710
     13          1           0        1.830796    1.216146    1.072155
     14          1           0        2.165473    1.228014   -0.740200
     15          6           0        1.836917   -0.672064    0.136489
     16          1           0        2.170650   -1.231636   -0.732369
     17          1           0        1.827189   -1.214054    1.074620
 ---------------------------------------------------------------------
                    Distance matrix (angstroms):
                    1          2          3          4          5
     1  C    0.000000
     2  C    1.357572   0.000000
     3  C    2.298519   1.461600   0.000000
     4  C    2.354016   2.298760   1.357654   0.000000
     5  H    1.080352   2.183335   3.349164   3.399414   0.000000
     6  H    2.180725   1.081212   2.255636   3.326832   2.647274
     7  H    3.326590   2.255589   1.081211   2.180712   4.340484
     8  H    3.399550   3.349313   2.183226   1.080357   4.413440
     9  C    1.517423   2.349193   2.348997   1.517218   2.295979
    10  H    2.158550   2.999306   2.999018   2.158282   2.704406
    11  H    2.189988   3.176992   3.177595   2.191476   2.693064
    12  C    2.699998   3.057784   3.364271   3.234010   3.066049
    13  H    2.957143   2.997612   3.544046   3.807938   3.212428
    14  H    2.965334   3.707033   4.162292   3.816015   3.026211
    15  C    3.232062   3.359721   3.054309   2.700001   3.915162
    16  H    3.823958   4.163084   3.704594   2.968441   4.479317
    17  H    3.801948   3.534009   2.993320   2.961291   4.587365
                    6          7          8          9         10
     6  H    0.000000
     7  H    2.681149   0.000000
     8  H    4.340571   2.646908   0.000000
     9  C    3.400658   3.400431   2.296102   0.000000
    10  H    3.987159   3.986873   2.704652   1.103309   0.000000
    11  H    4.186797   4.187600   2.695655   1.090855   1.782342
    12  C    3.625263   4.092833   3.916528   2.954912   4.026132
    13  H    3.237729   4.127712   4.594224   3.641162   4.692910
    14  H    4.303787   5.009252   4.468999   3.129174   4.074728
    15  C    4.087144   3.620701   3.067322   2.956295   4.028018
    16  H    5.007855   4.296470   3.027845   3.141331   4.088656
    17  H    4.113799   3.232218   3.221862   3.643576   4.696355
                   11         12         13         14         15
    11  H    0.000000
    12  C    2.636893   0.000000
    13  H    3.546640   1.083388   0.000000
    14  H    2.527495   1.087904   1.843036   0.000000
    15  C    2.641544   1.343482   2.107331   2.118213   0.000000
    16  H    2.546550   2.117803   3.059975   2.459668   1.086008
    17  H    3.553369   2.106345   2.430204   3.061323   1.083483
                   16         17
    16  H    0.000000
    17  H    1.839425   0.000000
 Stoichiometry    C7H10
 Framework group  C1[X(C7H10)]
 Deg. of freedom    45
 Full point group                 C1      NOp   1
 Largest Abelian subgroup         C1      NOp   1
 Largest concise Abelian subgroup C1      NOp   1
                         Standard orientation:                         
 ---------------------------------------------------------------------
 Center     Atomic      Atomic             Coordinates (Angstroms)
 Number     Number       Type             X           Y           Z
 ---------------------------------------------------------------------
      1          6           0       -0.723680   -1.179202    0.343893
      2          6           0       -1.107100   -0.726877   -0.877332
      3          6           0       -1.108863    0.734700   -0.869284
      4          6           0       -0.726172    1.174778    0.356727
      5          1           0       -0.638653   -2.210437    0.654516
      6          1           0       -1.337003   -1.332207   -1.743207
      7          1           0       -1.339914    1.348901   -1.728581
      8          1           0       -0.642893    2.202940    0.677849
      9          6           0       -0.590317   -0.007106    1.298345
     10          1           0       -1.426685   -0.011800    2.017900
     11          1           0        0.348145   -0.010662    1.854440
     12          6           0        1.872723   -0.669576   -0.193656
     13          1           0        1.839881   -1.213973   -1.129756
     14          1           0        2.222961   -1.226172    0.672987
     15          6           0        1.869207    0.673901   -0.193852
     16          1           0        2.225532    1.233485    0.665980
     17          1           0        1.833843    1.216223   -1.131174
 ---------------------------------------------------------------------
 Rotational constants (GHZ):           3.6957232           2.3621834           2.1981163
 Standard basis: 3-21G (6D, 7F)
 There are    83 symmetry adapted cartesian basis functions of A   symmetry.
 There are    83 symmetry adapted basis functions of A   symmetry.
    83 basis functions,   135 primitive gaussians,    83 cartesian basis functions
    26 alpha electrons       26 beta electrons
       nuclear repulsion energy       284.8375254330 Hartrees.
 NAtoms=   17 NActive=   17 NUniq=   17 SFac= 1.00D+00 NAtFMM=   60 NAOKFM=F Big=F
 Integral buffers will be    131072 words long.
 Raffenetti 2 integral format.
 Two-electron integral symmetry is turned on.
 One-electron integrals computed using PRISM.
 NBasis=    83 RedAO= T EigKep=  4.39D-03  NBF=    83
 NBsUse=    83 1.00D-06 EigRej= -1.00D+00 NBFU=    83
 Initial guess from the checkpoint file:  "C3.chk"
 B after Tr=    -0.000000    0.000000    0.000000
         Rot=    0.999998   -0.000449   -0.001814   -0.000456 Ang=  -0.22 deg.
 ExpMin= 1.83D-01 ExpMax= 1.72D+02 ExpMxC= 1.72D+02 IAcc=3 IRadAn=         5 AccDes= 0.00D+00
 Harris functional with IExCor=  402 and IRadAn=       5 diagonalized for initial guess.
 HarFok:  IExCor=  402 AccDes= 0.00D+00 IRadAn=         5 IDoV= 1 UseB2=F ITyADJ=14
 ICtDFT=  3500011 ScaDFX=  1.000000  1.000000  1.000000  1.000000
 FoFCou: FMM=F IPFlag=           0 FMFlag=      100000 FMFlg1=           0
         NFxFlg=           0 DoJE=T BraDBF=F KetDBF=T FulRan=T
         wScrn=  0.000000 ICntrl=       500 IOpCl=  0 I1Cent=   200000004 NGrid=           0
         NMat0=    1 NMatS0=      1 NMatT0=    0 NMatD0=    1 NMtDS0=    0 NMtDT0=    0
 Petite list used in FoFCou.
 Keep R1 ints in memory in canonical form, NReq=7891734.
 Requested convergence on RMS density matrix=1.00D-08 within 128 cycles.
 Requested convergence on MAX density matrix=1.00D-06.
 Requested convergence on             energy=1.00D-06.
 No special actions if energy rises.
 Integral accuracy reduced to 1.0D-05 until final iterations.
 Initial convergence to 1.0D-05 achieved.  Increase integral accuracy.
 SCF Done:  E(RB3LYP) =  -271.184048842     A.U. after   12 cycles
            NFock= 12  Conv=0.80D-08     -V/T= 2.0089
 Calling FoFJK, ICntrl=      2127 FMM=F ISym2X=0 I1Cent= 0 IOpClX= 0 NMat=1 NMatS=1 NMatT=0.
 ***** Axes restored to original set *****
 -------------------------------------------------------------------
 Center     Atomic                   Forces (Hartrees/Bohr)
 Number     Number              X              Y              Z
 -------------------------------------------------------------------
      1        6          -0.003784138    0.004105943   -0.001012625
      2        6          -0.001412091   -0.000435848   -0.000608509
      3        6          -0.001319214    0.000426051   -0.000573580
      4        6          -0.003631628   -0.004105450   -0.000979998
      5        1          -0.000354151    0.000312027    0.000046105
      6        1           0.000329633    0.000300447   -0.000212137
      7        1           0.000313472   -0.000305792   -0.000218668
      8        1          -0.000372910   -0.000294486    0.000010382
      9        6           0.000917389    0.000141952    0.001085100
     10        1           0.000022644    0.000005331    0.001197637
     11        1          -0.001583093   -0.000143352   -0.001385298
     12        6           0.019892688   -0.007113331    0.002965900
     13        1          -0.007143283    0.002846665   -0.001370575
     14        1          -0.007448491    0.001493966   -0.000440452
     15        6           0.020307465    0.007490819    0.004634922
     16        1          -0.007630579   -0.001945911   -0.001888041
     17        1          -0.007103713   -0.002779032   -0.001250162
 -------------------------------------------------------------------
 Cartesian Forces:  Max     0.020307465 RMS     0.004982735

 GradGradGradGradGradGradGradGradGradGradGradGradGradGradGradGradGradGrad
 Berny optimization.
 Using GEDIIS/GDIIS optimizer.
 FormGI is forming the generalized inverse of G from B-inverse, IUseBI=4.
 Internal  Forces:  Max     0.005680353 RMS     0.001266262
 Search for a local minimum.
 Step number   2 out of a maximum of  102
 All quantities printed in internal units (Hartrees-Bohrs-Radians)
 Mixed Optimization -- RFO/linear search
 Update second derivatives using D2CorX and points    1    2
 DE= -6.92D-03 DEPred=-5.66D-03 R= 1.22D+00
 TightC=F SS=  1.41D+00  RLast= 2.85D-01 DXNew= 5.0454D-01 8.5554D-01
 Trust test= 1.22D+00 RLast= 2.85D-01 DXMaxT set to 5.05D-01
 ITU=  1  0
 Use linear search instead of GDIIS.
     Eigenvalues ---    0.00885   0.01771   0.01936   0.02217   0.02302
     Eigenvalues ---    0.02354   0.02764   0.02890   0.03039   0.03087
     Eigenvalues ---    0.03783   0.04128   0.04998   0.05315   0.05668
     Eigenvalues ---    0.05946   0.06241   0.06611   0.06701   0.07049
     Eigenvalues ---    0.07416   0.08761   0.11176   0.12181   0.13989
     Eigenvalues ---    0.15964   0.15981   0.20804   0.26096   0.27543
     Eigenvalues ---    0.31270   0.32003   0.33413   0.34843   0.35618
     Eigenvalues ---    0.35721   0.35841   0.35841   0.35921   0.35924
     Eigenvalues ---    0.45187   0.45529   0.531451000.000001000.00000
     Eigenvalues --- 1000.000001000.000001000.000001000.000001000.00000
     Eigenvalues --- 1000.000001000.000001000.000001000.000001000.00000
     Eigenvalues --- 1000.000001000.000001000.000001000.000001000.00000
     Eigenvalues --- 1000.000001000.000001000.000001000.000001000.00000
     Eigenvalues --- 1000.000001000.000001000.000001000.000001000.00000
     Eigenvalues --- 1000.000001000.000001000.000001000.000001000.00000
     Eigenvalues --- 1000.000001000.000001000.000001000.000001000.00000
     Eigenvalues --- 1000.000001000.000001000.000001000.000001000.00000
     Eigenvalues --- 1000.000001000.000001000.000001000.000001000.00000
     Eigenvalues --- 1000.000001000.000001000.000001000.000001000.00000
     Eigenvalues --- 1000.000001000.000001000.000001000.000001000.00000
     Eigenvalues --- 1000.000001000.000001000.000001000.000001000.00000
     Eigenvalues --- 1000.000001000.000001000.000001000.000001000.00000
     Eigenvalues --- 1000.000001000.000001000.000001000.000001000.00000
     Eigenvalues --- 1000.000001000.000001000.000001000.000001000.00000
     Eigenvalues --- 1000.000001000.000001000.000001000.000001000.00000
     Eigenvalues --- 1000.000001000.000001000.000001000.000001000.00000
     Eigenvalues --- 1000.000001000.000001000.000001000.000001000.00000
     Eigenvalues --- 1000.000001000.000001000.000001000.000001000.00000
     Eigenvalues --- 1000.000001000.000001000.000001000.000001000.00000
     Eigenvalues --- 1000.000001000.000001000.000001000.000001000.00000
 RFO step:  Lambda=-2.79468921D-03 EMin= 8.85398841D-03
 Quartic linear search produced a step of  0.31852.
 Iteration  1 RMS(Cart)=  0.01659459 RMS(Int)=  0.00106005
 Iteration  2 RMS(Cart)=  0.00065176 RMS(Int)=  0.00083194
 Iteration  3 RMS(Cart)=  0.00000032 RMS(Int)=  0.00083194
 Iteration  1 RMS(Cart)=  0.00001309 RMS(Int)=  0.00000685
 Iteration  2 RMS(Cart)=  0.00000404 RMS(Int)=  0.00000757
 Iteration  3 RMS(Cart)=  0.00000154 RMS(Int)=  0.00000816
 Iteration  4 RMS(Cart)=  0.00000062 RMS(Int)=  0.00000844
 Variable       Old X    -DE/DX   Delta X   Delta X   Delta X     New X
                                 (Linear)    (Quad)   (Total)
    R1        2.56544   0.00002   0.00239  -0.00098   0.00149   2.56693
    R2        2.04157   0.00026  -0.00013   0.00097   0.00083   2.04240
    R3        2.86751   0.00041  -0.00094   0.00236   0.00130   2.86881
    R4        5.10226   0.00506  -0.00000   0.00000   0.00000   5.10226
    R5        2.76202   0.00121  -0.00582   0.00385  -0.00162   2.76040
    R6        2.04319  -0.00007  -0.00003  -0.00023  -0.00027   2.04293
    R7        2.56559  -0.00007   0.00242  -0.00100   0.00156   2.56716
    R8        2.04319  -0.00006  -0.00003  -0.00022  -0.00025   2.04294
    R9        2.04158   0.00025  -0.00014   0.00094   0.00080   2.04238
   R10        2.86713   0.00047  -0.00096   0.00224   0.00116   2.86829
   R11        5.10226   0.00465   0.00000   0.00000  -0.00000   5.10226
   R12        2.08495  -0.00077   0.00054  -0.00312  -0.00258   2.08237
   R13        2.06142   0.00022  -0.00052  -0.00251  -0.00287   2.05855
   R14        4.98300   0.00157   0.00750   0.00938   0.01671   4.99971
   R15        4.77627  -0.00102  -0.02105  -0.05796  -0.07879   4.69748
   R16        4.99179   0.00127   0.00743   0.00854   0.01570   5.00749
   R17        2.04731   0.00030   0.00068   0.00093   0.00161   2.04892
   R18        2.05584  -0.00080  -0.00146  -0.00233  -0.00291   2.05293
   R19        2.53881  -0.00110  -0.03632   0.00995  -0.02674   2.51207
   R20        2.05226   0.00017  -0.00228   0.00118  -0.00110   2.05116
   R21        2.04749   0.00037   0.00023   0.00130   0.00153   2.04901
    A1        2.21294   0.00027  -0.00118   0.00148   0.00035   2.21328
    A2        1.91058  -0.00074   0.00154  -0.00740  -0.00599   1.90459
    A3        1.60041   0.00054   0.00490   0.00422   0.00915   1.60956
    A4        2.15261   0.00043  -0.00126   0.00499   0.00357   2.15618
    A5        1.73324   0.00016   0.00065   0.00303   0.00362   1.73686
    A6        1.46552  -0.00053   0.00268  -0.00094   0.00176   1.46728
    A7        1.90558   0.00028  -0.00086   0.00298   0.00197   1.90756
    A8        2.20672  -0.00057   0.00041  -0.00497  -0.00452   2.20221
    A9        2.17003   0.00028   0.00029   0.00183   0.00216   2.17218
   A10        1.90580   0.00020  -0.00080   0.00299   0.00208   1.90788
   A11        2.16995   0.00033   0.00026   0.00188   0.00215   2.17210
   A12        2.20656  -0.00053   0.00038  -0.00499  -0.00459   2.20197
   A13        2.21258   0.00030  -0.00123   0.00150   0.00031   2.21289
   A14        1.91047  -0.00067   0.00149  -0.00733  -0.00600   1.90447
   A15        1.59748   0.00057   0.00453   0.00406   0.00849   1.60597
   A16        2.15313   0.00033  -0.00112   0.00493   0.00372   2.15685
   A17        1.73459   0.00014   0.00088   0.00348   0.00444   1.73903
   A18        1.46658  -0.00052   0.00242  -0.00156   0.00082   1.46741
   A19        1.77569   0.00091  -0.00375   0.00779   0.00404   1.77973
   A20        1.91804  -0.00045   0.00260  -0.00564  -0.00313   1.91491
   A21        1.97549  -0.00004  -0.00227   0.00031  -0.00200   1.97349
   A22        1.91792  -0.00055   0.00257  -0.00590  -0.00324   1.91467
   A23        1.97790  -0.00021  -0.00179   0.00255   0.00068   1.97858
   A24        1.89618   0.00032   0.00261   0.00064   0.00329   1.89947
   A25        1.67324   0.00086  -0.00008  -0.00493  -0.00496   1.66828
   A26        1.98386  -0.00004  -0.00349  -0.01589  -0.01987   1.96399
   A27        1.67021   0.00086  -0.00041  -0.00541  -0.00581   1.66439
   A28        0.84336  -0.00011  -0.00498   0.00982   0.00396   0.84732
   A29        0.84536  -0.00051  -0.00155  -0.00066  -0.00221   0.84316
   A30        1.61884  -0.00270  -0.01220  -0.03935  -0.05100   1.56784
   A31        1.62524  -0.00272  -0.01899  -0.05232  -0.07050   1.55474
   A32        1.75815   0.00003   0.00238   0.00032   0.00258   1.76073
   A33        2.46411  -0.00321  -0.01377  -0.04013  -0.05338   2.41072
   A34        2.02750  -0.00076   0.00244  -0.00697  -0.01018   2.01731
   A35        2.09704   0.00128   0.00216   0.01922   0.02019   2.11723
   A36        2.10898   0.00123   0.00619   0.01742   0.02111   2.13009
   A37        0.84523  -0.00048  -0.00141   0.00002  -0.00139   0.84384
   A38        1.75992   0.00029   0.00322   0.00122   0.00460   1.76452
   A39        1.62919  -0.00267  -0.01694  -0.05396  -0.07030   1.55888
   A40        1.62300  -0.00277  -0.01221  -0.03965  -0.05143   1.57157
   A41        1.27504  -0.00160  -0.01095  -0.03237  -0.04316   1.23188
   A42        2.46824  -0.00325  -0.01362  -0.03963  -0.05286   2.41537
   A43        2.11098   0.00059   0.00624   0.02023   0.02411   2.13509
   A44        2.09526   0.00126   0.00210   0.01864   0.02013   2.11538
   A45        2.02387  -0.00012   0.00148  -0.00793  -0.01231   2.01156
    D1        3.12485  -0.00025   0.00004  -0.00470  -0.00464   3.12021
    D2       -0.05981  -0.00041  -0.00472  -0.00862  -0.01332  -0.07313
    D3        0.10817   0.00005   0.00896   0.00324   0.01218   0.12035
    D4       -3.07649  -0.00010   0.00420  -0.00068   0.00350  -3.07299
    D5       -1.36142   0.00042   0.00443   0.00270   0.00713  -1.35430
    D6        1.73710   0.00027  -0.00033  -0.00122  -0.00155   1.73555
    D7       -0.16254  -0.00014  -0.01321  -0.00502  -0.01819  -0.18073
    D8        1.86913  -0.00049  -0.01109  -0.01012  -0.02113   1.84799
    D9       -2.29071  -0.00044  -0.00741  -0.01319  -0.02054  -2.31126
   D10        3.09876   0.00016  -0.00465   0.00285  -0.00179   3.09697
   D11       -1.15276  -0.00019  -0.00254  -0.00225  -0.00473  -1.15749
   D12        0.97058  -0.00014   0.00114  -0.00532  -0.00414   0.96644
   D13        1.40248   0.00033  -0.00722  -0.00006  -0.00720   1.39528
   D14       -2.84904  -0.00002  -0.00510  -0.00516  -0.01014  -2.85918
   D15       -0.72569   0.00003  -0.00142  -0.00823  -0.00955  -0.73525
   D16        2.25343  -0.00072   0.00176  -0.00549  -0.00378   2.24965
   D17       -0.90101  -0.00106  -0.00034  -0.01326  -0.01316  -0.91418
   D18       -2.93273   0.00015   0.00098   0.00130   0.00112  -2.93161
   D19        1.21774  -0.00042  -0.00080  -0.00326  -0.00417   1.21356
   D20       -1.80035  -0.00029   0.00175  -0.00250  -0.00064  -1.80098
   D21        1.32840  -0.00063  -0.00035  -0.01028  -0.01002   1.31837
   D22       -0.70332   0.00058   0.00097   0.00429   0.00426  -0.69906
   D23       -2.83604   0.00001  -0.00082  -0.00027  -0.00103  -2.83707
   D24        0.34404   0.00008   0.00078   0.00237   0.00315   0.34719
   D25       -2.81040  -0.00027  -0.00131  -0.00540  -0.00624  -2.81664
   D26        1.44107   0.00095   0.00000   0.00916   0.00805   1.44912
   D27       -0.69165   0.00038  -0.00178   0.00460   0.00275  -0.68889
   D28        0.00029  -0.00001  -0.00004  -0.00055  -0.00061  -0.00032
   D29        3.09925  -0.00016  -0.00480  -0.00367  -0.00852   3.09073
   D30       -3.09935   0.00016   0.00459   0.00348   0.00809  -3.09126
   D31       -0.00039   0.00002  -0.00016   0.00036   0.00018  -0.00021
   D32       -3.12584   0.00030  -0.00039   0.00530   0.00489  -3.12095
   D33       -0.10863  -0.00003  -0.00890  -0.00238  -0.01124  -0.11986
   D34        1.36106  -0.00037  -0.00477  -0.00254  -0.00738   1.35368
   D35        0.05950   0.00042   0.00450   0.00828   0.01276   0.07226
   D36        3.07672   0.00009  -0.00401   0.00060  -0.00337   3.07335
   D37       -1.73678  -0.00025   0.00011   0.00044   0.00048  -1.73630
   D38        0.16270   0.00014   0.01317   0.00468   0.01780   0.18050
   D39       -1.86905   0.00042   0.01104   0.00960   0.02066  -1.84839
   D40        2.28921   0.00056   0.00704   0.01132   0.01832   2.30753
   D41       -3.09816  -0.00017   0.00500  -0.00293   0.00204  -3.09611
   D42        1.15328   0.00010   0.00286   0.00198   0.00490   1.15818
   D43       -0.97164   0.00025  -0.00113   0.00371   0.00256  -0.96908
   D44       -1.39958  -0.00035   0.00767   0.00012   0.00784  -1.39175
   D45        2.85185  -0.00008   0.00553   0.00503   0.01070   2.86255
   D46        0.72693   0.00007   0.00153   0.00676   0.00836   0.73529
   D47       -2.25315   0.00057  -0.00169   0.00650   0.00483  -2.24832
   D48       -1.22986   0.00033  -0.00006   0.00475   0.00455  -1.22531
   D49        2.91718   0.00037  -0.00262  -0.00220  -0.00377   2.91341
   D50        0.88841   0.00097  -0.00045   0.01408   0.01342   0.90183
   D51        1.80144   0.00010  -0.00157   0.00346   0.00176   1.80320
   D52        2.82473  -0.00013   0.00005   0.00172   0.00148   2.82620
   D53        0.68858  -0.00009  -0.00250  -0.00524  -0.00684   0.68175
   D54       -1.34018   0.00051  -0.00033   0.01105   0.01035  -1.32983
   D55       -0.34358  -0.00016  -0.00071  -0.00127  -0.00206  -0.34564
   D56        0.67970  -0.00039   0.00091  -0.00301  -0.00234   0.67737
   D57       -1.45644  -0.00036  -0.00165  -0.00997  -0.01065  -1.46709
   D58        2.79798   0.00025   0.00053   0.00631   0.00654   2.80452
   D59        0.74686   0.00062   0.00036   0.00628   0.00653   0.75339
   D60        0.44930  -0.00003  -0.00321  -0.00557  -0.00788   0.44142
   D61        1.26425   0.00029  -0.00807   0.00712  -0.00102   1.26323
   D62       -1.26372  -0.00037   0.00801  -0.00564   0.00225  -1.26148
   D63       -1.56128  -0.00103   0.00444  -0.01749  -0.01216  -1.57344
   D64       -0.74633  -0.00071  -0.00042  -0.00480  -0.00530  -0.75164
   D65        2.88243   0.00025   0.00404  -0.00026   0.00356   2.88598
   D66        2.58487  -0.00041   0.00047  -0.01212  -0.01085   2.57402
   D67       -2.88337  -0.00009  -0.00440   0.00058  -0.00399  -2.88736
   D68       -0.48822  -0.00016  -0.00127  -0.00428  -0.00549  -0.49371
   D69       -0.50869  -0.00063  -0.00444  -0.01569  -0.01833  -0.52703
   D70        0.48736   0.00028   0.00113   0.00257   0.00375   0.49111
   D71        2.41764  -0.00169  -0.01150  -0.04347  -0.05456   2.36307
   D72        0.48730   0.00093   0.00323   0.01472   0.01670   0.50400
   D73        2.52641  -0.00055  -0.00160  -0.01758  -0.01942   2.50699
   D74       -1.82650  -0.00251  -0.01423  -0.06362  -0.07774  -1.90423
   D75        2.52635   0.00011   0.00050  -0.00543  -0.00647   2.51988
   D76        0.00515  -0.00000   0.00037  -0.00063  -0.00012   0.00502
   D77        1.76106  -0.00285  -0.01596  -0.05868  -0.07522   1.68584
   D78       -1.73862   0.00275   0.01230   0.04039   0.05281  -1.68581
   D79        1.74338  -0.00283  -0.01204  -0.04176  -0.05390   1.68947
   D80       -2.78389  -0.00568  -0.02837  -0.09982  -0.12900  -2.91289
   D81       -0.00039  -0.00008  -0.00012  -0.00074  -0.00097  -0.00135
   D82       -1.74428   0.00288   0.01970   0.05686   0.07728  -1.66700
   D83        0.01164   0.00003   0.00337  -0.00120   0.00218   0.01382
   D84        2.79515   0.00564   0.03162   0.09788   0.13021   2.92536
         Item               Value     Threshold  Converged?
 Maximum Force            0.005666     0.000450     NO 
 RMS     Force            0.001112     0.000300     NO 
 Maximum Displacement     0.098944     0.001800     NO 
 RMS     Displacement     0.016548     0.001200     NO 
 Predicted change in Energy=-2.410679D-03
 GradGradGradGradGradGradGradGradGradGradGradGradGradGradGradGradGradGrad

                          Input orientation:                          
 ---------------------------------------------------------------------
 Center     Atomic      Atomic             Coordinates (Angstroms)
 Number     Number       Type             X           Y           Z
 ---------------------------------------------------------------------
      1          6           0       -0.750370    1.180478   -0.329579
      2          6           0       -1.115629    0.725516    0.897101
      3          6           0       -1.116007   -0.735206    0.889715
      4          6           0       -0.751386   -1.178384   -0.341592
      5          1           0       -0.675174    2.212537   -0.641526
      6          1           0       -1.325758    1.332839    1.766422
      7          1           0       -1.326288   -1.351108    1.752952
      8          1           0       -0.676422   -2.207513   -0.663090
      9          6           0       -0.648038    0.005661   -1.285611
     10          1           0       -1.509565    0.009328   -1.972657
     11          1           0        0.269709    0.011480   -1.872433
     12          6           0        1.858024    0.664993    0.140048
     13          1           0        1.799731    1.228833    1.064312
     14          1           0        2.113114    1.240557   -0.745302
     15          6           0        1.855026   -0.664335    0.140461
     16          1           0        2.118650   -1.245707   -0.737408
     17          1           0        1.795378   -1.225646    1.066236
 ---------------------------------------------------------------------
                    Distance matrix (angstroms):
                    1          2          3          4          5
     1  C    0.000000
     2  C    1.358362   0.000000
     3  C    2.300047   1.460741   0.000000
     4  C    2.358893   2.300406   1.358481   0.000000
     5  H    1.080792   2.184629   3.350854   3.405013   0.000000
     6  H    2.178877   1.081070   2.255975   3.328643   2.644870
     7  H    3.328294   2.255931   1.081078   2.178866   4.342469
     8  H    3.405169   3.351083   2.184519   1.080781   4.420103
     9  C    1.518112   2.345435   2.345191   1.517832   2.299105
    10  H    2.155847   2.983894   2.983688   2.155428   2.705966
    11  H    2.188039   3.177944   3.179184   2.191321   2.693063
    12  C    2.699999   3.069105   3.371560   3.230950   3.069665
    13  H    2.906594   2.963210   3.519867   3.778817   3.162707
    14  H    2.894128   3.658899   4.123608   3.770891   2.954668
    15  C    3.226819   3.365856   3.064872   2.700001   3.910219
    16  H    3.779415   4.125277   3.656658   2.897985   4.446808
    17  H    3.770752   3.508505   2.957678   2.910365   4.565215
                    6          7          8          9         10
     6  H    0.000000
     7  H    2.683981   0.000000
     8  H    4.342609   2.644431   0.000000
     9  C    3.396411   3.396131   2.299234   0.000000
    10  H    3.970665   3.970458   2.706193   1.101941   0.000000
    11  H    4.187214   4.188946   2.698445   1.089336   1.782096
    12  C    3.636974   4.099508   3.914043   2.957629   4.029153
    13  H    3.205068   4.111242   4.574245   3.606919   4.654226
    14  H    4.259473   4.978704   4.435928   3.072599   4.018225
    15  C    4.092657   3.632154   3.071696   2.957686   4.029835
    16  H    4.978154   4.252129   2.956860   3.085614   4.032977
    17  H    4.096047   3.198769   3.172448   3.607989   4.656467
                   11         12         13         14         15
    11  H    0.000000
    12  C    2.645733   0.000000
    13  H    3.528086   1.084240   0.000000
    14  H    2.485799   1.086366   1.836587   0.000000
    15  C    2.649849   1.329332   2.107283   2.116554   0.000000
    16  H    2.507466   2.118639   3.077540   2.486283   1.085425
    17  H    3.534675   2.106244   2.454484   3.076489   1.084291
                   16         17
    16  H    0.000000
    17  H    1.832495   0.000000
 Stoichiometry    C7H10
 Framework group  C1[X(C7H10)]
[...]
 ! D36   D(7,3,4,9)            175.4818         -DE/DX =    0.0002              !
 ! D37   D(7,3,4,15)           -99.6763         -DE/DX =   -0.0001              !
 ! D38   D(3,4,9,1)             11.1599         -DE/DX =   -0.0004              !
 ! D39   D(3,4,9,10)          -102.9692         -DE/DX =    0.0                 !
 ! D40   D(3,4,9,11)           136.0845         -DE/DX =   -0.0001              !
 ! D41   D(8,4,9,1)           -177.5626         -DE/DX =   -0.0002              !
 ! D42   D(8,4,9,10)            68.3082         -DE/DX =    0.0001              !
 ! D43   D(8,4,9,11)           -52.6381         -DE/DX =    0.0                 !
 ! D44   D(15,4,9,1)           -79.668          -DE/DX =   -0.0009              !
 ! D45   D(15,4,9,10)          166.2028         -DE/DX =   -0.0005              !
 ! D46   D(15,4,9,11)           45.2565         -DE/DX =   -0.0006              !
 ! D47   D(3,4,15,11)         -129.1059         -DE/DX =    0.0001              !
 ! D48   D(3,4,15,12)          -69.7548         -DE/DX =    0.0002              !
 ! D49   D(3,4,15,16)          168.5582         -DE/DX =    0.0001              !
 ! D50   D(3,4,15,17)           52.148          -DE/DX =    0.0002              !
 ! D51   D(8,4,15,11)          102.8122         -DE/DX =    0.0                 !
 ! D52   D(8,4,15,12)          162.1633         -DE/DX =    0.0                 !
 ! D53   D(8,4,15,16)           40.4763         -DE/DX =    0.0                 !
 ! D54   D(8,4,15,17)          -75.9339         -DE/DX =    0.0                 !
 ! D55   D(9,4,15,11)          -20.3133         -DE/DX =    0.0                 !
 ! D56   D(9,4,15,12)           39.0379         -DE/DX =    0.0                 !
 ! D57   D(9,4,15,16)          -82.6491         -DE/DX =   -0.0001              !
 ! D58   D(9,4,15,17)          160.9407         -DE/DX =    0.0                 !
 ! D59   D(1,9,11,12)           44.706          -DE/DX =    0.0003              !
 ! D60   D(1,9,11,14)           27.0695         -DE/DX =    0.0002              !
 ! D61   D(1,9,11,15)           73.2261         -DE/DX =    0.0001              !
 ! D62   D(4,9,11,12)          -73.2188         -DE/DX =   -0.0001              !
 ! D63   D(4,9,11,14)          -90.8552         -DE/DX =   -0.0002              !
 ! D64   D(4,9,11,15)          -44.6987         -DE/DX =   -0.0003              !
 ! D65   D(10,9,11,12)         165.7439         -DE/DX =    0.0001              !
 ! D66   D(10,9,11,14)         148.1075         -DE/DX =    0.0                 !
 ! D67   D(10,9,11,15)        -165.736          -DE/DX =   -0.0001              !
 ! D68   D(9,11,12,1)          -28.8044         -DE/DX =    0.0003              !
 ! D69   D(9,11,12,13)         -30.6433         -DE/DX =    0.0002              !
 ! D70   D(9,11,15,4)           28.8015         -DE/DX =   -0.0002              !
 ! D71   D(9,11,15,16)         133.8906         -DE/DX =   -0.0001              !
 ! D72   D(9,11,15,17)          30.5813         -DE/DX =   -0.0002              !
 ! D73   D(14,11,15,4)         141.5198         -DE/DX =    0.0                 !
 ! D74   D(14,11,15,16)       -113.3911         -DE/DX =    0.0001              !
 ! D75   D(14,11,15,17)        143.2996         -DE/DX =    0.0                 !
 ! D76   D(1,12,15,4)            0.0193         -DE/DX =    0.0                 !
 ! D77   D(1,12,15,16)          90.4595         -DE/DX =   -0.0002              !
 ! D78   D(1,12,15,17)         -93.3927         -DE/DX =   -0.0001              !
 ! D79   D(13,12,15,4)          93.4148         -DE/DX =    0.0001              !
 ! D80   D(13,12,15,16)       -176.145          -DE/DX =    0.0                 !
 ! D81   D(13,12,15,17)          0.0028         -DE/DX =    0.0                 !
 ! D82   D(14,12,15,4)         -90.4914         -DE/DX =    0.0003              !
 ! D83   D(14,12,15,16)         -0.0512         -DE/DX =    0.0001              !
 ! D84   D(14,12,15,17)        176.0966         -DE/DX =    0.0002              !
 --------------------------------------------------------------------------------
 GradGradGradGradGradGradGradGradGradGradGradGradGradGradGradGradGradGrad

                          Input orientation:                          
 ---------------------------------------------------------------------
 Center     Atomic      Atomic             Coordinates (Angstroms)
 Number     Number       Type             X           Y           Z
 ---------------------------------------------------------------------
      1          6           0       -0.724444    1.182273   -0.328828
      2          6           0       -1.106220    0.728560    0.892439
      3          6           0       -1.106045   -0.734865    0.887282
      4          6           0       -0.724127   -1.179865   -0.337146
      5          1           0       -0.651620    2.213692   -0.643085
      6          1           0       -1.329945    1.336259    1.758333
      7          1           0       -1.329563   -1.348703    1.748888
      8          1           0       -0.651180   -2.209037   -0.658668
      9          6           0       -0.621845    0.004543   -1.282727
     10          1           0       -1.513840    0.006691   -1.933225
     11          1           0        0.262419    0.006923   -1.919765
     12          6           0        1.881349    0.667802    0.156108
     13          1           0        1.766283    1.236534    1.070604
     14          1           0        2.058105    1.247506   -0.744423
     15          6           0        1.881511   -0.668521    0.151913
     16          1           0        2.057610   -1.242436   -0.752444
     17          1           0        1.766543   -1.243033    1.062793
 ---------------------------------------------------------------------
                    Distance matrix (angstroms):
                    1          2          3          4          5
     1  C    0.000000
     2  C    1.357609   0.000000
     3  C    2.302164   1.463433   0.000000
     4  C    2.362152   2.302164   1.357612   0.000000
     5  H    1.080688   2.184059   3.352985   3.408091   0.000000
     6  H    2.178666   1.081260   2.257967   3.330004   2.645150
     7  H    3.330001   2.257965   1.081260   2.178668   4.344168
     8  H    3.408100   3.352979   2.184044   1.080691   4.422756
     9  C    1.519045   2.343111   2.343099   1.519015   2.300079
    10  H    2.139913   2.944762   2.944734   2.139867   2.697913
    11  H    2.210526   3.209739   3.209743   2.210525   2.708359
    12  C    2.700000   3.077571   3.380327   3.231977   3.073177
    13  H    2.857460   2.922508   3.488595   3.744714   3.120548
    14  H    2.814170   3.600218   4.074813   3.714676   2.878609
    15  C    3.232268   3.380348   3.077444   2.700000   3.918664
    16  H    3.714631   4.074344   3.599311   2.813263   4.392801
    17  H    3.744828   3.488404   2.922465   2.857841   4.550437
                    6          7          8          9         10
     6  H    0.000000
     7  H    2.684978   0.000000
     8  H    4.344161   2.645128   0.000000
     9  C    3.394543   3.394529   2.300054   0.000000
    10  H    3.927997   3.927977   2.697800   1.103996   0.000000
    11  H    4.222696   4.222693   2.708414   1.089837   1.776310
    12  C    3.650530   4.112565   3.918388   2.962454   4.041000
    13  H    3.173255   4.089961   4.550436   3.571991   4.614619
    14  H    4.213140   4.942994   4.392638   3.002808   3.963794
    15  C    4.112564   3.650202   3.073232   2.962769   4.041302
    16  H    4.942590   4.211994   2.877612   3.002605   3.963561
    17  H    4.089592   3.172974   3.121214   3.572437   4.615067
                   11         12         13         14         15
    11  H    0.000000
    12  C    2.714211   0.000000
    13  H    3.565930   1.083051   0.000000
    14  H    2.478903   1.085474   1.838369   0.000000
    15  C    2.714688   1.336330   2.118137   2.122679   0.000000
    16  H    2.479162   2.122626   3.090900   2.489955   1.085472
    17  H    3.566571   2.118147   2.479579   3.090925   1.083043
                   16         17
    16  H    0.000000
    17  H    1.838424   0.000000
 Stoichiometry    C7H10
 Framework group  C1[X(C7H10)]
 Deg. of freedom    45
 Full point group                 C1      NOp   1
 Largest Abelian subgroup         C1      NOp   1
 Largest concise Abelian subgroup C1      NOp   1
                         Standard orientation:                         
 ---------------------------------------------------------------------
 Center     Atomic      Atomic             Coordinates (Angstroms)
 Number     Number       Type             X           Y           Z
 ---------------------------------------------------------------------
      1          6           0       -0.701720   -1.181185    0.349019
      2          6           0       -1.117707   -0.731353   -0.862471
      3          6           0       -1.117568    0.732080   -0.861949
      4          6           0       -0.701461    1.180967    0.349853
      5          1           0       -0.619969   -2.211602    0.664368
      6          1           0       -1.365593   -1.341798   -1.719811
      7          1           0       -1.365277    1.343180   -1.718874
      8          1           0       -0.619638    2.211154    0.665942
      9          6           0       -0.572511   -0.000439    1.295930
     10          1           0       -1.445880   -0.000558    1.971231
     11          1           0        0.329299   -0.000771    1.907880
     12          6           0        1.889359   -0.668162   -0.210549
     13          1           0        1.748720   -1.239790   -1.119648
     14          1           0        2.091413   -1.245007    0.686490
     15          6           0        1.889474    0.668168   -0.210588
     16          1           0        2.090836    1.244948    0.686645
     17          1           0        1.748893    1.239789   -1.119691
 ---------------------------------------------------------------------
 Rotational constants (GHZ):           3.6985064           2.3731971           2.1990303

 **********************************************************************

            Population analysis using the SCF Density.

 **********************************************************************

 Orbital symmetries:
       Occupied  (A) (A) (A) (A) (A) (A) (A) (A) (A) (A) (A) (A)
                 (A) (A) (A) (A) (A) (A) (A) (A) (A) (A) (A) (A)
                 (A) (A)
       Virtual   (A) (A) (A) (A) (A) (A) (A) (A) (A) (A) (A) (A)
                 (A) (A) (A) (A) (A) (A) (A) (A) (A) (A) (A) (A)
                 (A) (A) (A) (A) (A) (A) (A) (A) (A) (A) (A) (A)
                 (A) (A) (A) (A) (A) (A) (A) (A) (A) (A) (A) (A)
                 (A) (A) (A) (A) (A) (A) (A) (A) (A)
 The electronic state is 1-A.
 Alpha  occ. eigenvalues --  -10.12326 -10.12093 -10.12052 -10.11612 -10.11495
 Alpha  occ. eigenvalues --  -10.10016 -10.09917  -0.85493  -0.74162  -0.70264
 Alpha  occ. eigenvalues --   -0.69924  -0.56238  -0.55033  -0.52577  -0.51375
 Alpha  occ. eigenvalues --   -0.45608  -0.43238  -0.40553  -0.39892  -0.37528
 Alpha  occ. eigenvalues --   -0.35949  -0.35530  -0.33689  -0.30070  -0.23549
 Alpha  occ. eigenvalues --   -0.21437
 Alpha virt. eigenvalues --   -0.00751   0.04286   0.10141   0.12290   0.15241
 Alpha virt. eigenvalues --    0.16730   0.17563   0.17946   0.19276   0.19519
 Alpha virt. eigenvalues --    0.20252   0.22227   0.23024   0.26169   0.28887
 Alpha virt. eigenvalues --    0.37772   0.38102   0.40961   0.47255   0.65124
 Alpha virt. eigenvalues --    0.67500   0.70285   0.71050   0.72575   0.74251
 Alpha virt. eigenvalues --    0.75814   0.77131   0.78641   0.80275   0.82701
 Alpha virt. eigenvalues --    0.85293   0.86369   0.87236   0.94849   0.97483
 Alpha virt. eigenvalues --    0.98550   0.99812   1.02768   1.03303   1.04342
 Alpha virt. eigenvalues --    1.06104   1.08314   1.09993   1.11764   1.12311
 Alpha virt. eigenvalues --    1.16133   1.30877   1.36215   1.36665   1.40608
 Alpha virt. eigenvalues --    1.41900   1.58041   1.63551   1.90185   2.01894
 Alpha virt. eigenvalues --    2.14601   2.25866
          Condensed to atoms (all electrons):
               1          2          3          4          5          6
     1  C    5.259146   0.516012  -0.109904  -0.118222   0.390530  -0.037615
     2  C    0.516012   5.172468   0.402475  -0.109903  -0.035911   0.388273
     3  C   -0.109904   0.402475   5.172472   0.516011   0.004052  -0.032854
     4  C   -0.118222  -0.109903   0.516011   5.259174   0.002962   0.003667
     5  H    0.390530  -0.035911   0.004052   0.002962   0.497966  -0.002120
     6  H   -0.037615   0.388273  -0.032854   0.003667  -0.002120   0.502655
     7  H    0.003667  -0.032854   0.388274  -0.037615  -0.000052  -0.000982
     8  H    0.002962   0.004052  -0.035912   0.390528  -0.000034  -0.000052
     9  C    0.332050  -0.124499  -0.124503   0.332041  -0.032705   0.004450
    10  H   -0.037333   0.001220   0.001220  -0.037336   0.000170  -0.000120
    11  H   -0.032580   0.003268   0.003268  -0.032581  -0.000690  -0.000063
    12  C   -0.001571  -0.005083  -0.005328  -0.006368  -0.001407   0.000043
    13  H    0.000117   0.000636  -0.000134   0.000058  -0.000017   0.000130
    14  H    0.000258   0.000008   0.000022   0.000068   0.000168   0.000000
    15  C   -0.006362  -0.005328  -0.005083  -0.001581  -0.000031  -0.000041
    16  H    0.000068   0.000022   0.000008   0.000261  -0.000001  -0.000000
    17  H    0.000058  -0.000134   0.000636   0.000115  -0.000000  -0.000002
               7          8          9         10         11         12
     1  C    0.003667   0.002962   0.332050  -0.037333  -0.032580  -0.001571
     2  C   -0.032854   0.004052  -0.124499   0.001220   0.003268  -0.005083
     3  C    0.388274  -0.035912  -0.124503   0.001220   0.003268  -0.005328
     4  C   -0.037615   0.390528   0.332041  -0.037336  -0.032581  -0.006368
     5  H   -0.000052  -0.000034  -0.032705   0.000170  -0.000690  -0.001407
     6  H   -0.000982  -0.000052   0.004450  -0.000120  -0.000063   0.000043
     7  H    0.502654  -0.002120   0.004450  -0.000120  -0.000063  -0.000041
     8  H   -0.002120   0.497974  -0.032708   0.000170  -0.000690  -0.000031
     9  C    0.004450  -0.032708   5.406319   0.340747   0.359743  -0.010851
    10  H   -0.000120   0.000170   0.340747   0.525277  -0.023980   0.000690
    11  H   -0.000063  -0.000690   0.359743  -0.023980   0.510762   0.000400
    12  C   -0.000041  -0.000031  -0.010851   0.000690   0.000400   5.168648
    13  H   -0.000002  -0.000000   0.000158  -0.000002   0.000011   0.383328
    14  H   -0.000000  -0.000001  -0.000301   0.000004   0.001191   0.380717
    15  C    0.000043  -0.001408  -0.010840   0.000690   0.000396   0.556535
    16  H    0.000000   0.000169  -0.000298   0.000004   0.001191  -0.048956
    17  H    0.000131  -0.000017   0.000158  -0.000002   0.000011  -0.044906
              13         14         15         16         17
     1  C    0.000117   0.000258  -0.006362   0.000068   0.000058
     2  C    0.000636   0.000008  -0.005328   0.000022  -0.000134
     3  C   -0.000134   0.000022  -0.005083   0.000008   0.000636
     4  C    0.000058   0.000068  -0.001581   0.000261   0.000115
     5  H   -0.000017   0.000168  -0.000031  -0.000001  -0.000000
     6  H    0.000130   0.000000  -0.000041  -0.000000  -0.000002
     7  H   -0.000002  -0.000000   0.000043   0.000000   0.000131
     8  H   -0.000000  -0.000001  -0.001408   0.000169  -0.000017
     9  C    0.000158  -0.000301  -0.010840  -0.000298   0.000158
    10  H   -0.000002   0.000004   0.000690   0.000004  -0.000002
    11  H    0.000011   0.001191   0.000396   0.001191   0.000011
    12  C    0.383328   0.380717   0.556535  -0.048956  -0.044906
    13  H    0.513278  -0.032786  -0.044907   0.003354  -0.005187
    14  H   -0.032786   0.531398  -0.048947  -0.005402   0.003353
    15  C   -0.044907  -0.048947   5.168631   0.380716   0.383338
    16  H    0.003354  -0.005402   0.380716   0.531391  -0.032779
    17  H   -0.005187   0.003353   0.383338  -0.032779   0.513258
 Mulliken charges:
               1
     1  C   -0.161280
     2  C   -0.174722
     3  C   -0.174718
     4  C   -0.161280
     5  H    0.177121
     6  H    0.174632
     7  H    0.174633
     8  H    0.177119
     9  C   -0.443411
    10  H    0.228702
    11  H    0.210406
    12  C   -0.365819
    13  H    0.181965
    14  H    0.170250
    15  C   -0.365821
    16  H    0.170254
    17  H    0.181970
 Sum of Mulliken charges =  -0.00000
 Mulliken charges with hydrogens summed into heavy atoms:
               1
     1  C    0.015841
     2  C   -0.000090
     3  C   -0.000086
     4  C    0.015839
     9  C   -0.004303
    12  C   -0.013604
    15  C   -0.013596
 Electronic spatial extent (au):  <R**2>=            717.3678
 Charge=              0.0000 electrons
 Dipole moment (field-independent basis, Debye):
    X=             -0.4682    Y=             -0.0001    Z=              0.4853  Tot=              0.6743
 Quadrupole moment (field-independent basis, Debye-Ang):
   XX=            -48.5290   YY=            -40.2845   ZZ=            -39.7933
   XY=             -0.0006   XZ=              1.4197   YZ=             -0.0003
 Traceless Quadrupole moment (field-independent basis, Debye-Ang):
   XX=             -5.6600   YY=              2.5844   ZZ=              3.0756
   XY=             -0.0006   XZ=              1.4197   YZ=             -0.0003
 Octapole moment (field-independent basis, Debye-Ang**2):
  XXX=             -5.3711  YYY=             -0.0005  ZZZ=             -1.2373  XYY=              0.4554
  XXY=             -0.0030  XXZ=              2.2131  XZZ=             -2.2046  YZZ=              0.0013
  YYZ=             -0.0112  XYZ=             -0.0003
 Hexadecapole moment (field-independent basis, Debye-Ang**3):
 XXXX=           -543.7851 YYYY=           -252.5999 ZZZZ=           -215.0358 XXXY=             -0.0080
 XXXZ=              7.7437 YYYX=             -0.0024 YYYZ=              0.0005 ZZZX=              4.6144
 ZZZY=              0.0010 XXYY=           -125.9572 XXZZ=           -109.3132 YYZZ=            -75.6470
 XXYZ=             -0.0051 YYXZ=              3.0732 ZZXY=              0.0009
 N-N= 2.851909774653D+02 E-N=-1.197760415553D+03  KE= 2.687985987072D+02
 1\1\GINC-TACHAS\FOpt\RB3LYP\3-21G\C7H10\LEOS\20-Oct-2019\0\\# opt=modr
 edundant b3lyp/3-21g geom=connectivity\\Title Card Required\\0,1\C,-0.
 7244439473,1.1822728863,-0.3288280607\C,-1.1062196461,0.7285595174,0.8
 924391793\C,-1.1060451729,-0.7348647295,0.8872817244\C,-0.7241269688,-
 1.1798645984,-0.3371458785\H,-0.6516195621,2.2136917984,-0.6430847647\
 H,-1.3299454372,1.3362589976,1.7583328493\H,-1.3295628813,-1.348702654
 9,1.7488878326\H,-0.6511799644,-2.2090367129,-0.6586680439\C,-0.621844
 6674,0.0045434431,-1.282727186\H,-1.513839587,0.0066914428,-1.93322464
 82\H,0.2624192838,0.0069228735,-1.9197646227\C,1.8813490483,0.66780173
 37,0.1561077215\H,1.7662834478,1.2365340283,1.0706037133\H,2.058104997
 1,1.247506014,-0.7444226442\C,1.8815111854,-0.6685213639,0.1519131869\
 H,2.057609751,-1.2424359977,-0.7524435408\H,1.7665431511,-1.2430330579
 ,1.0627925525\\Version=ES64L-G16RevB.01\State=1-A\HF=-271.1883574\RMSD
 =6.239e-09\RMSF=1.905e-03\Dipole=-0.1894844,0.0006215,-0.1856833\Quadr
 upole=-4.2622523,1.9214621,2.3407902,0.0029568,-0.8714427,-0.0016247\P
 G=C01 [X(C7H10)]\\@


 READER, WHETHER YOU BE DILETTANTE OR PROFESSOR ... SHOW YOURSELF TO BE
 MORE HUMAN THAN CRITICAL, AND THEN YOUR PLEASURE WILL INCREASE.
                                           -- DOMENICO SCARLATTI (1738)
 Job cpu time:       0 days  0 hours  5 minutes 12.2 seconds.
 Elapsed time:       0 days  0 hours  2 minutes 36.8 seconds.
 File lengths (MBytes):  RWF=     10 Int=      0 D2E=      0 Chk=      2 Scr=      1
 Normal termination of Gaussian 16 at Sun Oct 20 19:20:53 2019.
