 Entering Gaussian System, Link 0=g16
 Input=/home/leos/jsmolpage/PDB/Ciclo/C2.8.com
 Output=/home/leos/jsmolpage/PDB/Ciclo/C2.8.log
 Initial command:
 /opt/g16/l1.exe "/tmp/Gau-6499.inp" -scrdir="/tmp/"
 Entering Link 1 = /opt/g16/l1.exe PID=      6502.
  
 Copyright (c) 1988-2017, Gaussian, Inc.  All Rights Reserved.
  
 This is part of the Gaussian(R) 16 program.  It is based on
 the Gaussian(R) 09 system (copyright 2009, Gaussian, Inc.),
 the Gaussian(R) 03 system (copyright 2003, Gaussian, Inc.),
 the Gaussian(R) 98 system (copyright 1998, Gaussian, Inc.),
 the Gaussian(R) 94 system (copyright 1995, Gaussian, Inc.),
 the Gaussian 92(TM) system (copyright 1992, Gaussian, Inc.),
 the Gaussian 90(TM) system (copyright 1990, Gaussian, Inc.),
 the Gaussian 88(TM) system (copyright 1988, Gaussian, Inc.),
 the Gaussian 86(TM) system (copyright 1986, Carnegie Mellon
 University), and the Gaussian 82(TM) system (copyright 1983,
 Carnegie Mellon University). Gaussian is a federally registered
 trademark of Gaussian, Inc.
  
 This software contains proprietary and confidential information,
 including trade secrets, belonging to Gaussian, Inc.
  
 This software is provided under written license and may be
 used, copied, transmitted, or stored only in accord with that
 written license.
  
 The following legend is applicable only to US Government
 contracts under FAR:
  
                    RESTRICTED RIGHTS LEGEND
  
 Use, reproduction and disclosure by the US Government is
 subject to restrictions as set forth in subparagraphs (a)
 and (c) of the Commercial Computer Software - Restricted
 Rights clause in FAR 52.227-19.
  
 Gaussian, Inc.
 340 Quinnipiac St., Bldg. 40, Wallingford CT 06492
  
  
 ---------------------------------------------------------------
 Warning -- This program may not be used in any manner that
 competes with the business of Gaussian, Inc. or will provide
 assistance to any competitor of Gaussian, Inc.  The licensee
 of this program is prohibited from giving any competitor of
 Gaussian, Inc. access to this program.  By using this program,
 the user acknowledges that Gaussian, Inc. is engaged in the
 business of creating and licensing software in the field of
 computational chemistry and represents and warrants to the
 licensee that it is not a competitor of Gaussian, Inc. and that
 it will not use this program in any manner prohibited above.
 ---------------------------------------------------------------
  

 Cite this work as:
 Gaussian 16, Revision B.01,
 M. J. Frisch, G. W. Trucks, H. B. Schlegel, G. E. Scuseria, 
 M. A. Robb, J. R. Cheeseman, G. Scalmani, V. Barone, 
 G. A. Petersson, H. Nakatsuji, X. Li, M. Caricato, A. V. Marenich, 
 J. Bloino, B. G. Janesko, R. Gomperts, B. Mennucci, H. P. Hratchian, 
 J. V. Ortiz, A. F. Izmaylov, J. L. Sonnenberg, D. Williams-Young, 
 F. Ding, F. Lipparini, F. Egidi, J. Goings, B. Peng, A. Petrone, 
 T. Henderson, D. Ranasinghe, V. G. Zakrzewski, J. Gao, N. Rega, 
 G. Zheng, W. Liang, M. Hada, M. Ehara, K. Toyota, R. Fukuda, 
 J. Hasegawa, M. Ishida, T. Nakajima, Y. Honda, O. Kitao, H. Nakai, 
 T. Vreven, K. Throssell, J. A. Montgomery, Jr., J. E. Peralta, 
 F. Ogliaro, M. J. Bearpark, J. J. Heyd, E. N. Brothers, K. N. Kudin, 
 V. N. Staroverov, T. A. Keith, R. Kobayashi, J. Normand, 
 K. Raghavachari, A. P. Rendell, J. C. Burant, S. S. Iyengar, 
 J. Tomasi, M. Cossi, J. M. Millam, M. Klene, C. Adamo, R. Cammi, 
 J. W. Ochterski, R. L. Martin, K. Morokuma, O. Farkas, 
 J. B. Foresman, and D. J. Fox, Gaussian, Inc., Wallingford CT, 2016.
 
 ******************************************
 Gaussian 16:  ES64L-G16RevB.01 20-Dec-2017
                20-Oct-2019 
 ******************************************
 %nprocshared=2
 Will use up to    2 processors via shared memory.
 %mem=6GB
 %chk=C3.chk
 ------------------------------------------------
 # opt=modredundant b3lyp/3-21g geom=connectivity
 ------------------------------------------------
 1/18=120,19=15,26=3,38=1,57=2/1,3;
 2/9=110,12=2,17=6,18=5,40=1/2;
 3/5=5,11=2,25=1,30=1,71=1,74=-5/1,2,3;
 4//1;
 5/5=2,38=5/2;
 6/7=2,8=2,9=2,10=2,28=1/1;
 7//1,2,3,16;
 1/18=20,19=15,26=3/3(2);
 2/9=110/2;
 99//99;
 2/9=110/2;
 3/5=5,11=2,25=1,30=1,71=1,74=-5/1,2,3;
 4/5=5,16=3,69=1/1;
 5/5=2,38=5/2;
 7//1,2,3,16;
 1/18=20,19=15,26=3/3(-5);
 2/9=110/2;
 6/7=2,8=2,9=2,10=2,19=2,28=1/1;
 99/9=1/99;
 -------------------
 Title Card Required
 -------------------
 Symbolic Z-matrix:
 Charge =  0 Multiplicity = 1
 C                    -0.79369   1.18537  -0.33569 
 C                    -1.11924   0.73143   0.89728 
 C                    -1.11909  -0.73982   0.89047 
 C                    -0.79293  -1.18231  -0.34652 
 H                    -0.72426   2.21635  -0.65178 
 H                    -1.32329   1.33641   1.76992 
 H                    -1.32313  -1.35292   1.75743 
 H                    -0.7233   -2.21038  -0.67191 
 C                    -0.66368   0.00577  -1.28383 
 H                    -1.50946   0.00868  -1.99091 
 H                     0.26287   0.00925  -1.8612 
 C                     1.91752   0.68351   0.15162 
 H                     1.84769   1.23853   1.0734 
 H                     2.2045    1.24206  -0.73138 
 C                     1.91705  -0.68462   0.15179 
 H                     2.20406  -1.24443  -0.73004 
 H                     1.84698  -1.23871   1.0746 
 
 Add virtual bond connecting atoms C12        and H11        Dist= 5.09D+00.
 Add virtual bond connecting atoms H14        and H11        Dist= 4.84D+00.
 Add virtual bond connecting atoms C15        and H11        Dist= 5.10D+00.
 Add virtual bond connecting atoms H16        and H11        Dist= 4.86D+00.
 The following ModRedundant input section has been read:
 B       4      15 F                                                           
 B       1      12 F                                                           
 

 GradGradGradGradGradGradGradGradGradGradGradGradGradGradGradGradGradGrad
 Berny optimization.
 Initialization pass.
                           ----------------------------
                           !    Initial Parameters    !
                           ! (Angstroms and Degrees)  !
 --------------------------                            --------------------------
 ! Name  Definition              Value          Derivative Info.                !
 --------------------------------------------------------------------------------
 ! R1    R(1,2)                  1.3536         estimate D2E/DX2                !
 ! R2    R(1,5)                  1.0806         estimate D2E/DX2                !
 ! R3    R(1,9)                  1.519          estimate D2E/DX2                !
 ! R4    R(1,12)                 2.8            Frozen                          !
 ! R5    R(2,3)                  1.4713         estimate D2E/DX2                !
 ! R6    R(2,6)                  1.0813         estimate D2E/DX2                !
 ! R7    R(3,4)                  1.3536         estimate D2E/DX2                !
 ! R8    R(3,7)                  1.0813         estimate D2E/DX2                !
 ! R9    R(4,8)                  1.0806         estimate D2E/DX2                !
 ! R10   R(4,9)                  1.5188         estimate D2E/DX2                !
 ! R11   R(4,15)                 2.8            Frozen                          !
 ! R12   R(9,10)                 1.1024         estimate D2E/DX2                !
 ! R13   R(9,11)                 1.0917         estimate D2E/DX2                !
 ! R14   R(11,12)                2.6915         estimate D2E/DX2                !
 ! R15   R(11,14)                2.5625         estimate D2E/DX2                !
 ! R16   R(11,15)                2.6963         estimate D2E/DX2                !
 ! R17   R(11,16)                2.5728         estimate D2E/DX2                !
 ! R18   R(12,13)                1.0782         estimate D2E/DX2                !
 ! R19   R(12,14)                1.0835         estimate D2E/DX2                !
 ! R20   R(12,15)                1.3681         estimate D2E/DX2                !
 ! R21   R(15,16)                1.0832         estimate D2E/DX2                !
 ! R22   R(15,17)                1.0787         estimate D2E/DX2                !
 ! A1    A(2,1,5)              127.0035         estimate D2E/DX2                !
 ! A2    A(2,1,9)              109.191          estimate D2E/DX2                !
 ! A3    A(5,1,9)              123.5619         estimate D2E/DX2                !
 ! A4    A(1,2,3)              109.3362         estimate D2E/DX2                !
 ! A5    A(1,2,6)              126.362          estimate D2E/DX2                !
 ! A6    A(3,2,6)              124.281          estimate D2E/DX2                !
 ! A7    A(2,3,4)              109.3381         estimate D2E/DX2                !
 ! A8    A(2,3,7)              124.2827         estimate D2E/DX2                !
 ! A9    A(4,3,7)              126.358          estimate D2E/DX2                !
 ! A10   A(3,4,8)              126.9922         estimate D2E/DX2                !
 ! A11   A(3,4,9)              109.1931         estimate D2E/DX2                !
 ! A12   A(8,4,9)              123.5673         estimate D2E/DX2                !
 ! A13   A(1,9,4)              102.4141         estimate D2E/DX2                !
 ! A14   A(1,9,10)             109.4285         estimate D2E/DX2                !
 ! A15   A(1,9,11)             113.5958         estimate D2E/DX2                !
 ! A16   A(4,9,10)             109.4265         estimate D2E/DX2                !
 ! A17   A(4,9,11)             113.6469         estimate D2E/DX2                !
 ! A18   A(10,9,11)            108.1745         estimate D2E/DX2                !
 ! A19   A(9,11,12)             97.2988         estimate D2E/DX2                !
 ! A20   A(9,11,14)            114.2943         estimate D2E/DX2                !
 ! A21   A(9,11,15)             97.1819         estimate D2E/DX2                !
 ! A22   A(9,11,16)            113.9708         estimate D2E/DX2                !
 ! A23   A(12,11,16)            47.8886         estimate D2E/DX2                !
 ! A24   A(14,11,15)            47.9148         estimate D2E/DX2                !
 ! A25   A(14,11,16)            57.919          estimate D2E/DX2                !
 ! A26   A(11,12,13)           136.7587         estimate D2E/DX2                !
 ! A27   A(13,12,14)           116.6473         estimate D2E/DX2                !
 ! A28   A(13,12,15)           120.9717         estimate D2E/DX2                !
 ! A29   A(14,12,15)           121.0429         estimate D2E/DX2                !
 ! A30   A(11,15,17)           136.9751         estimate D2E/DX2                !
 ! A31   A(12,15,16)           121.105          estimate D2E/DX2                !
 ! A32   A(12,15,17)           120.9181         estimate D2E/DX2                !
 ! A33   A(16,15,17)           116.6277         estimate D2E/DX2                !
 ! D1    D(5,1,2,3)            179.0338         estimate D2E/DX2                !
 ! D2    D(5,1,2,6)             -2.5772         estimate D2E/DX2                !
 ! D3    D(9,1,2,3)              4.5857         estimate D2E/DX2                !
 ! D4    D(9,1,2,6)           -177.0253         estimate D2E/DX2                !
 ! D5    D(2,1,9,4)             -6.9373         estimate D2E/DX2                !
 ! D6    D(2,1,9,10)           109.0877         estimate D2E/DX2                !
 ! D7    D(2,1,9,11)          -129.9156         estimate D2E/DX2                !
 ! D8    D(5,1,9,4)            178.3828         estimate D2E/DX2                !
 ! D9    D(5,1,9,10)           -65.5922         estimate D2E/DX2                !
 ! D10   D(5,1,9,11)            55.4045         estimate D2E/DX2                !
 ! D11   D(1,2,3,4)              0.024          estimate D2E/DX2                !
 ! D12   D(1,2,3,7)            178.4371         estimate D2E/DX2                !
 ! D13   D(6,2,3,4)           -178.4059         estimate D2E/DX2                !
 ! D14   D(6,2,3,7)              0.0072         estimate D2E/DX2                !
 ! D15   D(2,3,4,8)           -179.0282         estimate D2E/DX2                !
 ! D16   D(2,3,4,9)             -4.6237         estimate D2E/DX2                !
 ! D17   D(7,3,4,8)              2.6            estimate D2E/DX2                !
 ! D18   D(7,3,4,9)            177.0045         estimate D2E/DX2                !
 ! D19   D(3,4,9,1)              6.9522         estimate D2E/DX2                !
 ! D20   D(3,4,9,10)          -109.0743         estimate D2E/DX2                !
 ! D21   D(3,4,9,11)           129.8961         estimate D2E/DX2                !
 ! D22   D(8,4,9,1)           -178.4109         estimate D2E/DX2                !
 ! D23   D(8,4,9,10)            65.5627         estimate D2E/DX2                !
 ! D24   D(8,4,9,11)           -55.4669         estimate D2E/DX2                !
 ! D25   D(1,9,11,12)           43.4778         estimate D2E/DX2                !
 ! D26   D(1,9,11,14)           26.32           estimate D2E/DX2                !
 ! D27   D(1,9,11,15)           73.1402         estimate D2E/DX2                !
 ! D28   D(1,9,11,16)           90.4059         estimate D2E/DX2                !
 ! D29   D(4,9,11,12)          -73.0961         estimate D2E/DX2                !
 ! D30   D(4,9,11,14)          -90.254          estimate D2E/DX2                !
 ! D31   D(4,9,11,15)          -43.4337         estimate D2E/DX2                !
 ! D32   D(4,9,11,16)          -26.168          estimate D2E/DX2                !
 ! D33   D(10,9,11,12)         165.1754         estimate D2E/DX2                !
 ! D34   D(10,9,11,14)         148.0175         estimate D2E/DX2                !
 ! D35   D(10,9,11,15)        -165.1622         estimate D2E/DX2                !
 ! D36   D(10,9,11,16)        -147.8965         estimate D2E/DX2                !
 ! D37   D(9,11,12,13)         -28.3536         estimate D2E/DX2                !
 ! D38   D(16,11,12,13)       -144.2247         estimate D2E/DX2                !
 ! D39   D(9,11,15,17)          27.4744         estimate D2E/DX2                !
 ! D40   D(14,11,15,17)        143.8948         estimate D2E/DX2                !
 ! D41   D(13,12,15,16)       -166.3049         estimate D2E/DX2                !
 ! D42   D(13,12,15,17)         -0.0135         estimate D2E/DX2                !
 ! D43   D(14,12,15,16)          0.0444         estimate D2E/DX2                !
 ! D44   D(14,12,15,17)        166.3358         estimate D2E/DX2                !
 --------------------------------------------------------------------------------
 Trust Radius=3.00D-01 FncErr=1.00D-07 GrdErr=1.00D-06 EigMax=2.50D+02 EigMin=1.00D-04
 Number of steps in this run=    102 maximum allowed number of steps=    102.
 GradGradGradGradGradGradGradGradGradGradGradGradGradGradGradGradGradGrad

                          Input orientation:                          
 ---------------------------------------------------------------------
 Center     Atomic      Atomic             Coordinates (Angstroms)
 Number     Number       Type             X           Y           Z
 ---------------------------------------------------------------------
      1          6           0       -0.793692    1.185372   -0.335690
      2          6           0       -1.119238    0.731433    0.897277
      3          6           0       -1.119089   -0.739821    0.890465
      4          6           0       -0.792932   -1.182308   -0.346523
      5          1           0       -0.724258    2.216348   -0.651778
      6          1           0       -1.323294    1.336406    1.769924
      7          1           0       -1.323127   -1.352915    1.757429
      8          1           0       -0.723300   -2.210380   -0.671910
      9          6           0       -0.663676    0.005770   -1.283827
     10          1           0       -1.509459    0.008682   -1.990906
     11          1           0        0.262871    0.009247   -1.861203
     12          6           0        1.917519    0.683514    0.151620
     13          1           0        1.847686    1.238528    1.073403
     14          1           0        2.204501    1.242055   -0.731379
     15          6           0        1.917048   -0.684616    0.151787
     16          1           0        2.204064   -1.244430   -0.730043
     17          1           0        1.846983   -1.238710    1.074604
 ---------------------------------------------------------------------
                    Distance matrix (angstroms):
                    1          2          3          4          5
     1  C    0.000000
     2  C    1.353606   0.000000
     3  C    2.305582   1.471270   0.000000
     4  C    2.367705   2.305628   1.353629   0.000000
     5  H    1.080576   2.181869   3.357580   3.413028   0.000000
     6  H    2.176442   1.081270   2.264038   3.332349   2.645332
     7  H    3.332319   2.264054   1.081269   2.176425   4.347708
     8  H    3.413082   3.357585   2.181790   1.080582   4.426774
     9  C    1.518989   2.343360   2.343257   1.518807   2.299959
    10  H    2.153291   3.002706   3.002490   2.153106   2.698813
    11  H    2.196995   3.168752   3.169005   2.197448   2.703410
    12  C    2.800000   3.127331   3.434059   3.328060   3.158167
    13  H    2.994202   3.015096   3.570586   3.853505   3.247657
    14  H    3.024722   3.736375   4.195767   3.874307   3.087590
    15  C    3.329054   3.432197   3.125191   2.800000   4.004723
    16  H    3.878916   4.194823   3.731491   3.022074   4.534113
    17  H    3.852047   3.565302   3.013367   2.998655   4.639946
                    6          7          8          9         10
     6  H    0.000000
     7  H    2.689350   0.000000
     8  H    4.347670   2.645133   0.000000
     9  C    3.395745   3.395606   2.299852   0.000000
    10  H    3.992662   3.992328   2.698524   1.102415   0.000000
    11  H    4.178798   4.179159   2.704384   1.091725   1.777070
    12  C    3.680767   4.150597   4.003342   3.030250   4.097560
    13  H    3.248051   4.151810   4.642311   3.658301   4.708814
    14  H    4.325593   5.037082   4.527125   3.171756   4.111097
    15  C    4.147615   3.677423   3.158776   3.032780   4.100335
    16  H    5.035157   4.317449   3.083164   3.177044   4.117076
    17  H    4.143109   3.244825   3.255888   3.662559   4.713708
                   11         12         13         14         15
    11  H    0.000000
    12  C    2.691459   0.000000
    13  H    3.554530   1.078240   0.000000
    14  H    2.562469   1.083519   1.839719   0.000000
    15  C    2.696271   1.368130   2.133698   2.138848   0.000000
    16  H    2.572831   2.139253   3.089418   2.486485   1.083233
    17  H    3.561709   2.133499   2.477238   3.089270   1.078666
                   16         17
    16  H    0.000000
    17  H    1.839644   0.000000
 Stoichiometry    C7H10
 Framework group  C1[X(C7H10)]
 Deg. of freedom    45
 Full point group                 C1      NOp   1
 Largest Abelian subgroup         C1      NOp   1
 Largest concise Abelian subgroup C1      NOp   1
                         Standard orientation:                         
 ---------------------------------------------------------------------
 Center     Atomic      Atomic             Coordinates (Angstroms)
 Number     Number       Type             X           Y           Z
 ---------------------------------------------------------------------
      1          6           0       -0.767497   -1.185329    0.340545
      2          6           0       -1.106964   -0.731647   -0.888756
      3          6           0       -1.106815    0.739609   -0.882233
      4          6           0       -0.766739    1.182353    0.350908
      5          1           0       -0.694445   -2.216239    0.656030
      6          1           0       -1.320827   -1.336800   -1.758927
      7          1           0       -1.320659    1.352523   -1.746958
      8          1           0       -0.693492    2.210492    0.675288
      9          6           0       -0.626848   -0.005535    1.286925
     10          1           0       -1.464595   -0.008351    2.003507
     11          1           0        0.306158   -0.008853    1.853805
     12          6           0        1.938014   -0.683430   -0.177437
     13          1           0        1.857809   -1.238627   -1.098265
     14          1           0        2.234975   -1.241784    0.702375
     15          6           0        1.937469    0.684700   -0.177865
     16          1           0        2.234393    1.244700    0.700560
     17          1           0        1.856963    1.238610   -1.099940
 ---------------------------------------------------------------------
 Rotational constants (GHZ):           3.6644441           2.2727719           2.1091565
 Standard basis: 3-21G (6D, 7F)
 There are    83 symmetry adapted cartesian basis functions of A   symmetry.
 There are    83 symmetry adapted basis functions of A   symmetry.
    83 basis functions,   135 primitive gaussians,    83 cartesian basis functions
    26 alpha electrons       26 beta electrons
       nuclear repulsion energy       282.3174274606 Hartrees.
 NAtoms=   17 NActive=   17 NUniq=   17 SFac= 1.00D+00 NAtFMM=   60 NAOKFM=F Big=F
 Integral buffers will be    131072 words long.
 Raffenetti 2 integral format.
 Two-electron integral symmetry is turned on.
 One-electron integrals computed using PRISM.
 NBasis=    83 RedAO= T EigKep=  4.45D-03  NBF=    83
 NBsUse=    83 1.00D-06 EigRej= -1.00D+00 NBFU=    83
 ExpMin= 1.83D-01 ExpMax= 1.72D+02 ExpMxC= 1.72D+02 IAcc=3 IRadAn=         5 AccDes= 0.00D+00
 Harris functional with IExCor=  402 and IRadAn=       5 diagonalized for initial guess.
 HarFok:  IExCor=  402 AccDes= 0.00D+00 IRadAn=         5 IDoV= 1 UseB2=F ITyADJ=14
 ICtDFT=  3500011 ScaDFX=  1.000000  1.000000  1.000000  1.000000
 FoFCou: FMM=F IPFlag=           0 FMFlag=      100000 FMFlg1=           0
         NFxFlg=           0 DoJE=T BraDBF=F KetDBF=T FulRan=T
         wScrn=  0.000000 ICntrl=       500 IOpCl=  0 I1Cent=   200000004 NGrid=           0
         NMat0=    1 NMatS0=      1 NMatT0=    0 NMatD0=    1 NMtDS0=    0 NMtDT0=    0
 Petite list used in FoFCou.
 Keep R1 ints in memory in canonical form, NReq=7891734.
 Requested convergence on RMS density matrix=1.00D-08 within 128 cycles.
 Requested convergence on MAX density matrix=1.00D-06.
 Requested convergence on             energy=1.00D-06.
 No special actions if energy rises.
 Integral accuracy reduced to 1.0D-05 until final iterations.
 Initial convergence to 1.0D-05 achieved.  Increase integral accuracy.
 SCF Done:  E(RB3LYP) =  -271.187651544     A.U. after   13 cycles
            NFock= 13  Conv=0.42D-08     -V/T= 2.0092

 **********************************************************************

            Population analysis using the SCF Density.

 **********************************************************************

 Orbital symmetries:
       Occupied  (A) (A) (A) (A) (A) (A) (A) (A) (A) (A) (A) (A)
                 (A) (A) (A) (A) (A) (A) (A) (A) (A) (A) (A) (A)
                 (A) (A)
       Virtual   (A) (A) (A) (A) (A) (A) (A) (A) (A) (A) (A) (A)
                 (A) (A) (A) (A) (A) (A) (A) (A) (A) (A) (A) (A)
                 (A) (A) (A) (A) (A) (A) (A) (A) (A) (A) (A) (A)
                 (A) (A) (A) (A) (A) (A) (A) (A) (A) (A) (A) (A)
                 (A) (A) (A) (A) (A) (A) (A) (A) (A)
 The electronic state is 1-A.
 Alpha  occ. eigenvalues --  -10.12104 -10.11897 -10.11861 -10.11577 -10.11460
 Alpha  occ. eigenvalues --  -10.10475 -10.10366  -0.85246  -0.73644  -0.70197
 Alpha  occ. eigenvalues --   -0.69717  -0.56536  -0.54832  -0.52519  -0.51218
 Alpha  occ. eigenvalues --   -0.45467  -0.43131  -0.40122  -0.39916  -0.37361
 Alpha  occ. eigenvalues --   -0.35628  -0.35408  -0.34276  -0.29834  -0.23346
 Alpha  occ. eigenvalues --   -0.21417
 Alpha virt. eigenvalues --   -0.00599   0.03275   0.10016   0.12699   0.15244
 Alpha virt. eigenvalues --    0.16969   0.18024   0.18099   0.19432   0.19605
 Alpha virt. eigenvalues --    0.20113   0.21940   0.22610   0.26156   0.28528
 Alpha virt. eigenvalues --    0.36401   0.38611   0.40841   0.47524   0.66268
 Alpha virt. eigenvalues --    0.66811   0.69890   0.70547   0.72684   0.73740
 Alpha virt. eigenvalues --    0.75849   0.76638   0.79028   0.80756   0.82301
 Alpha virt. eigenvalues --    0.85006   0.85694   0.87196   0.95143   0.96161
 Alpha virt. eigenvalues --    0.98321   0.99739   1.02607   1.03281   1.04790
 Alpha virt. eigenvalues --    1.06205   1.08233   1.08942   1.11028   1.11084
 Alpha virt. eigenvalues --    1.15763   1.30237   1.36753   1.36978   1.37566
 Alpha virt. eigenvalues --    1.41715   1.58071   1.61300   1.87748   2.00982
 Alpha virt. eigenvalues --    2.16234   2.16561
          Condensed to atoms (all electrons):
               1          2          3          4          5          6
     1  C    5.239246   0.520538  -0.109716  -0.114414   0.390407  -0.037585
     2  C    0.520538   5.168054   0.400499  -0.109706  -0.035707   0.387556
     3  C   -0.109716   0.400499   5.168117   0.520516   0.003978  -0.032526
     4  C   -0.114414  -0.109706   0.520516   5.239158   0.002876   0.003579
     5  H    0.390407  -0.035707   0.003978   0.002876   0.497095  -0.002106
     6  H   -0.037585   0.387556  -0.032526   0.003579  -0.002106   0.503397
     7  H    0.003580  -0.032522   0.387550  -0.037586  -0.000052  -0.000864
     8  H    0.002877   0.003977  -0.035715   0.390410  -0.000033  -0.000052
     9  C    0.334174  -0.123800  -0.123830   0.334184  -0.032491   0.004524
    10  H   -0.036914   0.001795   0.001789  -0.036927   0.000042  -0.000109
    11  H   -0.033327   0.002899   0.002898  -0.033264  -0.000526  -0.000071
    12  C    0.002671  -0.003336  -0.004220  -0.005302  -0.000853   0.000034
    13  H    0.000066   0.000504  -0.000090   0.000035  -0.000007   0.000097
    14  H    0.000208   0.000004   0.000029   0.000079   0.000132   0.000000
    15  C   -0.005284  -0.004232  -0.003339   0.002706  -0.000036  -0.000026
    16  H    0.000081   0.000029   0.000000   0.000208  -0.000000  -0.000000
    17  H    0.000034  -0.000088   0.000509   0.000045  -0.000000  -0.000001
               7          8          9         10         11         12
     1  C    0.003580   0.002877   0.334174  -0.036914  -0.033327   0.002671
     2  C   -0.032522   0.003977  -0.123800   0.001795   0.002899  -0.003336
     3  C    0.387550  -0.035715  -0.123830   0.001789   0.002898  -0.004220
     4  C   -0.037586   0.390410   0.334184  -0.036927  -0.033264  -0.005302
     5  H   -0.000052  -0.000033  -0.032491   0.000042  -0.000526  -0.000853
     6  H   -0.000864  -0.000052   0.004524  -0.000109  -0.000071   0.000034
     7  H    0.503384  -0.002107   0.004525  -0.000109  -0.000071  -0.000026
     8  H   -0.002107   0.497105  -0.032495   0.000043  -0.000526  -0.000036
     9  C    0.004525  -0.032495   5.402689   0.342021   0.355176  -0.009466
    10  H   -0.000109   0.000043   0.342021   0.528231  -0.023807   0.000533
    11  H   -0.000071  -0.000526   0.355176  -0.023807   0.508734   0.001543
    12  C   -0.000026  -0.000036  -0.009466   0.000533   0.001543   5.169912
    13  H   -0.000001  -0.000000   0.000143  -0.000001   0.000023   0.382577
    14  H   -0.000000  -0.000000  -0.000239   0.000005   0.000807   0.378774
    15  C    0.000033  -0.000855  -0.009337   0.000530   0.001501   0.548201
    16  H    0.000000   0.000137  -0.000223   0.000005   0.000770  -0.047149
    17  H    0.000098  -0.000008   0.000142  -0.000001   0.000024  -0.043912
              13         14         15         16         17
     1  C    0.000066   0.000208  -0.005284   0.000081   0.000034
     2  C    0.000504   0.000004  -0.004232   0.000029  -0.000088
     3  C   -0.000090   0.000029  -0.003339   0.000000   0.000509
     4  C    0.000035   0.000079   0.002706   0.000208   0.000045
     5  H   -0.000007   0.000132  -0.000036  -0.000000  -0.000000
     6  H    0.000097   0.000000  -0.000026  -0.000000  -0.000001
     7  H   -0.000001  -0.000000   0.000033   0.000000   0.000098
     8  H   -0.000000  -0.000000  -0.000855   0.000137  -0.000008
     9  C    0.000143  -0.000239  -0.009337  -0.000223   0.000142
    10  H   -0.000001   0.000005   0.000530   0.000005  -0.000001
    11  H    0.000023   0.000807   0.001501   0.000770   0.000024
    12  C    0.382577   0.378774   0.548201  -0.047149  -0.043912
    13  H    0.512043  -0.032682  -0.043837   0.003208  -0.004726
    14  H   -0.032682   0.530147  -0.047242  -0.004828   0.003216
    15  C   -0.043837  -0.047242   5.169543   0.378840   0.382495
    16  H    0.003208  -0.004828   0.378840   0.529863  -0.032698
    17  H   -0.004726   0.003216   0.382495  -0.032698   0.512385
 Mulliken charges:
               1
     1  C   -0.156643
     2  C   -0.176464
     3  C   -0.176447
     4  C   -0.156598
     5  H    0.177280
     6  H    0.174152
     7  H    0.174165
     8  H    0.177278
     9  C   -0.445696
    10  H    0.222875
    11  H    0.217215
    12  C   -0.369945
    13  H    0.182650
    14  H    0.171590
    15  C   -0.369661
    16  H    0.171759
    17  H    0.182489
 Sum of Mulliken charges =  -0.00000
 Mulliken charges with hydrogens summed into heavy atoms:
               1
     1  C    0.020638
     2  C   -0.002312
     3  C   -0.002282
     4  C    0.020680
     9  C   -0.005606
    12  C   -0.015705
    15  C   -0.015414
 Electronic spatial extent (au):  <R**2>=            738.8571
 Charge=             -0.0000 electrons
 Dipole moment (field-independent basis, Debye):
    X=             -0.1754    Y=             -0.0010    Z=              0.4094  Tot=              0.4454
 Quadrupole moment (field-independent basis, Debye-Ang):
   XX=            -47.7543   YY=            -40.3218   ZZ=            -39.6848
   XY=             -0.0024   XZ=              1.2034   YZ=             -0.0022
 Traceless Quadrupole moment (field-independent basis, Debye-Ang):
   XX=             -5.1673   YY=              2.2652   ZZ=              2.9021
   XY=             -0.0024   XZ=              1.2034   YZ=             -0.0022
 Octapole moment (field-independent basis, Debye-Ang**2):
  XXX=             -1.8732  YYY=              0.0006  ZZZ=             -1.6969  XYY=              0.7530
  XXY=              0.0050  XXZ=              2.4098  XZZ=             -1.8196  YZZ=              0.0058
  YYZ=             -0.0512  XYZ=              0.0134
 Hexadecapole moment (field-independent basis, Debye-Ang**3):
 XXXX=           -566.1579 YYYY=           -254.8442 ZZZZ=           -215.5654 XXXY=              0.0098
 XXXZ=              7.2194 YYYX=             -0.0182 YYYZ=              0.0256 ZZZX=              3.9013
 ZZZY=              0.0174 XXYY=           -128.7941 XXZZ=           -113.1111 YYZZ=            -75.9552
 XXYZ=             -0.0308 YYXZ=              2.4497 ZZXY=             -0.0026
 N-N= 2.823174274606D+02 E-N=-1.191976863817D+03  KE= 2.687105639242D+02
 Calling FoFJK, ICntrl=      2127 FMM=F ISym2X=0 I1Cent= 0 IOpClX= 0 NMat=1 NMatS=1 NMatT=0.
 ***** Axes restored to original set *****
 -------------------------------------------------------------------
 Center     Atomic                   Forces (Hartrees/Bohr)
 Number     Number              X              Y              Z
 -------------------------------------------------------------------
      1        6          -0.001905652    0.000625538   -0.001658909
      2        6          -0.001749243   -0.002686982    0.001225753
      3        6          -0.001671887    0.002685154    0.001271772
      4        6          -0.001935867   -0.000673392   -0.001645722
      5        1          -0.000140744   -0.000060334   -0.000039079
      6        1           0.000101899   -0.000015234    0.000029345
      7        1           0.000104451    0.000015902    0.000031347
      8        1          -0.000135876    0.000064477   -0.000044551
      9        6          -0.001479090    0.000084981   -0.001482567
     10        1          -0.000396901   -0.000002600    0.000095537
     11        1          -0.000863252   -0.000050304    0.000014774
     12        6           0.014654217   -0.037923456    0.001269211
     13        1          -0.005032709    0.002567680    0.001936584
     14        1          -0.004562215    0.001571176   -0.002170553
     15        6           0.014597397    0.037853636    0.001841604
     16        1          -0.004536049   -0.001585294   -0.002362778
     17        1          -0.005048479   -0.002470947    0.001688232
 -------------------------------------------------------------------
 Cartesian Forces:  Max     0.037923456 RMS     0.008252353

 GradGradGradGradGradGradGradGradGradGradGradGradGradGradGradGradGradGrad
 Berny optimization.
 FormGI is forming the generalized inverse of G from B-inverse, IUseBI=4.
 Internal  Forces:  Max     0.027608734 RMS     0.003377782
 Search for a local minimum.
 Step number   1 out of a maximum of  102
 All quantities printed in internal units (Hartrees-Bohrs-Radians)
 Mixed Optimization -- RFO/linear search
 Second derivative matrix not updated -- first step.
 ITU=  0
     Eigenvalues ---    0.00793   0.00972   0.01234   0.01487   0.01617
     Eigenvalues ---    0.01807   0.01864   0.01888   0.02210   0.02476
     Eigenvalues ---    0.02813   0.03637   0.03722   0.04724   0.05467
     Eigenvalues ---    0.06849   0.07095   0.09498   0.10154   0.13535
     Eigenvalues ---    0.14003   0.15862   0.15878   0.15989   0.15994
     Eigenvalues ---    0.18334   0.21922   0.28521   0.29639   0.30666
     Eigenvalues ---    0.33127   0.33416   0.33589   0.34318   0.35841
     Eigenvalues ---    0.35841   0.35924   0.35925   0.36156   0.36208
     Eigenvalues ---    0.44463   0.49445   0.535571000.000001000.00000
     Eigenvalues --- 1000.000001000.000001000.000001000.000001000.00000
     Eigenvalues --- 1000.000001000.000001000.000001000.000001000.00000
     Eigenvalues --- 1000.000001000.000001000.000001000.000001000.00000
     Eigenvalues --- 1000.000001000.000001000.000001000.000001000.00000
     Eigenvalues --- 1000.000001000.000001000.000001000.000001000.00000
     Eigenvalues --- 1000.000001000.000001000.000001000.000001000.00000
     Eigenvalues --- 1000.000001000.000001000.000001000.000001000.00000
     Eigenvalues --- 1000.000001000.000001000.000001000.000001000.00000
     Eigenvalues --- 1000.000001000.000001000.000001000.000001000.00000
     Eigenvalues --- 1000.000001000.000001000.000001000.000001000.00000
     Eigenvalues --- 1000.000001000.000001000.000001000.00000
 RFO step:  Lambda=-5.13885132D-03 EMin= 7.92952744D-03
 Linear search not attempted -- first point.
 Iteration  1 RMS(Cart)=  0.02855581 RMS(Int)=  0.00186311
 Iteration  2 RMS(Cart)=  0.00128742 RMS(Int)=  0.00110642
 Iteration  3 RMS(Cart)=  0.00000070 RMS(Int)=  0.00110642
 Iteration  1 RMS(Cart)=  0.00007070 RMS(Int)=  0.00001331
 Iteration  2 RMS(Cart)=  0.00000691 RMS(Int)=  0.00001389
 Iteration  3 RMS(Cart)=  0.00000068 RMS(Int)=  0.00001400
 Variable       Old X    -DE/DX   Delta X   Delta X   Delta X     New X
                                 (Linear)    (Quad)   (Total)
    R1        2.55794   0.00169   0.00000   0.00296   0.00300   2.56094
    R2        2.04199  -0.00006   0.00000  -0.00015  -0.00015   2.04184
    R3        2.87047  -0.00045   0.00000  -0.00121  -0.00134   2.86914
    R4        5.29123   0.00536   0.00000   0.00000   0.00000   5.29123
    R5        2.78030  -0.00228   0.00000  -0.00689  -0.00677   2.77353
    R6        2.04330  -0.00000   0.00000  -0.00001  -0.00001   2.04329
    R7        2.55799   0.00169   0.00000   0.00297   0.00301   2.56100
    R8        2.04330  -0.00000   0.00000  -0.00001  -0.00001   2.04329
    R9        2.04200  -0.00006   0.00000  -0.00015  -0.00015   2.04185
   R10        2.87013  -0.00039   0.00000  -0.00100  -0.00112   2.86901
   R11        5.29123   0.00534   0.00000   0.00000   0.00000   5.29123
   R12        2.08326   0.00024   0.00000   0.00072   0.00072   2.08398
   R13        2.06306  -0.00116   0.00000  -0.00645  -0.00692   2.05614
   R14        5.08612   0.00079   0.00000   0.06057   0.05991   5.14604
   R15        4.84236  -0.00279   0.00000  -0.11655  -0.11700   4.72537
   R16        5.09521   0.00074   0.00000   0.05949   0.05889   5.15411
   R17        4.86195  -0.00282   0.00000  -0.11852  -0.11904   4.74291
   R18        2.03758   0.00330   0.00000   0.00900   0.00900   2.04658
   R19        2.04755   0.00288   0.00000   0.00461   0.00625   2.05380
   R20        2.58539  -0.02761   0.00000  -0.06215  -0.06139   2.52400
   R21        2.04701   0.00306   0.00000   0.00507   0.00669   2.05371
   R22        2.03838   0.00304   0.00000   0.00830   0.00830   2.04668
    A1        2.21663  -0.00006   0.00000  -0.00160  -0.00161   2.21502
    A2        1.90574   0.00010   0.00000  -0.00003  -0.00062   1.90512
    A3        2.15656  -0.00010   0.00000  -0.00162  -0.00165   2.15491
    A4        1.90828  -0.00001   0.00000  -0.00147  -0.00172   1.90656
    A5        2.20543   0.00002   0.00000   0.00060   0.00064   2.20608
    A6        2.16911  -0.00002   0.00000   0.00039   0.00043   2.16954
    A7        1.90831  -0.00001   0.00000  -0.00147  -0.00171   1.90660
    A8        2.16914  -0.00002   0.00000   0.00039   0.00043   2.16957
    A9        2.20536   0.00002   0.00000   0.00062   0.00066   2.20603
   A10        2.21643  -0.00005   0.00000  -0.00152  -0.00152   2.21491
   A11        1.90578   0.00008   0.00000  -0.00007  -0.00065   1.90513
   A12        2.15666  -0.00009   0.00000  -0.00163  -0.00165   2.15501
   A13        1.78746  -0.00031   0.00000  -0.00573  -0.00619   1.78128
   A14        1.90989   0.00033   0.00000   0.01059   0.01074   1.92063
   A15        1.98262  -0.00019   0.00000  -0.01253  -0.01272   1.96990
   A16        1.90985   0.00034   0.00000   0.01055   0.01071   1.92056
   A17        1.98351  -0.00021   0.00000  -0.01252  -0.01273   1.97078
   A18        1.88800   0.00006   0.00000   0.01025   0.01043   1.89843
   A19        1.69818   0.00055   0.00000  -0.00123  -0.00075   1.69743
   A20        1.99481  -0.00044   0.00000  -0.02077  -0.02180   1.97302
   A21        1.69614   0.00056   0.00000  -0.00115  -0.00066   1.69548
   A22        1.98917  -0.00041   0.00000  -0.02047  -0.02148   1.96769
   A23        0.83581  -0.00365   0.00000  -0.00426  -0.00548   0.83034
   A24        0.83627  -0.00366   0.00000  -0.00446  -0.00568   0.83059
   A25        1.01088  -0.00134   0.00000   0.02632   0.02443   1.03530
   A26        2.38689  -0.00355   0.00000  -0.02911  -0.02864   2.35825
   A27        2.03588  -0.00205   0.00000   0.00346  -0.00138   2.03450
   A28        2.11135  -0.00134   0.00000   0.00926   0.00911   2.12046
   A29        2.11260   0.00465   0.00000   0.01602   0.01208   2.12467
   A30        2.39067  -0.00356   0.00000  -0.02955  -0.02908   2.36159
   A31        2.11368   0.00454   0.00000   0.01539   0.01146   2.12514
   A32        2.11042  -0.00128   0.00000   0.00996   0.00984   2.12026
   A33        2.03554  -0.00199   0.00000   0.00359  -0.00134   2.03420
    D1        3.12473  -0.00000   0.00000   0.00184   0.00191   3.12664
    D2       -0.04498  -0.00029   0.00000  -0.01686  -0.01683  -0.06181
    D3        0.08004   0.00068   0.00000   0.03892   0.03900   0.11903
    D4       -3.08967   0.00038   0.00000   0.02023   0.02025  -3.06942
    D5       -0.12108  -0.00098   0.00000  -0.05779  -0.05782  -0.17890
    D6        1.90394  -0.00061   0.00000  -0.04422  -0.04421   1.85973
    D7       -2.26745  -0.00042   0.00000  -0.03187  -0.03174  -2.29919
    D8        3.11337  -0.00034   0.00000  -0.02225  -0.02228   3.09108
    D9       -1.14480   0.00004   0.00000  -0.00868  -0.00867  -1.15347
   D10        0.96699   0.00023   0.00000   0.00367   0.00380   0.97079
   D11        0.00042  -0.00002   0.00000  -0.00081  -0.00081  -0.00039
   D12        3.11432  -0.00028   0.00000  -0.01812  -0.01816   3.09615
   D13       -3.11377   0.00027   0.00000   0.01740   0.01745  -3.09632
   D14        0.00013   0.00000   0.00000   0.00009   0.00010   0.00022
   D15       -3.12463   0.00002   0.00000  -0.00135  -0.00142  -3.12605
   D16       -0.08070  -0.00065   0.00000  -0.03766  -0.03773  -0.11843
   D17        0.04538   0.00029   0.00000   0.01642   0.01640   0.06178
   D18        3.08931  -0.00038   0.00000  -0.01990  -0.01992   3.06939
   D19        0.12134   0.00097   0.00000   0.05729   0.05732   0.17866
   D20       -1.90370   0.00060   0.00000   0.04368   0.04369  -1.86002
   D21        2.26711   0.00042   0.00000   0.03134   0.03123   2.29834
   D22       -3.11386   0.00034   0.00000   0.02249   0.02252  -3.09134
   D23        1.14429  -0.00003   0.00000   0.00888   0.00888   1.15317
   D24       -0.96808  -0.00022   0.00000  -0.00346  -0.00358  -0.97166
   D25        0.75883   0.00250   0.00000  -0.00318  -0.00353   0.75530
   D26        0.45937   0.00054   0.00000  -0.02184  -0.02064   0.43873
   D27        1.27654  -0.00319   0.00000  -0.02223  -0.02209   1.25445
   D28        1.57788  -0.00122   0.00000  -0.00363  -0.00505   1.57283
   D29       -1.27577   0.00319   0.00000   0.02201   0.02189  -1.25388
   D30       -1.57523   0.00123   0.00000   0.00335   0.00477  -1.57046
   D31       -0.75806  -0.00251   0.00000   0.00296   0.00332  -0.75474
   D32       -0.45672  -0.00053   0.00000   0.02156   0.02036  -0.43636
   D33        2.88285   0.00285   0.00000   0.00943   0.00919   2.89205
   D34        2.58339   0.00088   0.00000  -0.00923  -0.00792   2.57548
   D35       -2.88262  -0.00285   0.00000  -0.00962  -0.00937  -2.89199
   D36       -2.58128  -0.00088   0.00000   0.00898   0.00767  -2.57361
   D37       -0.49486  -0.00023   0.00000  -0.01604  -0.01517  -0.51004
   D38       -2.51720  -0.00023   0.00000   0.00979   0.01222  -2.50498
   D39        0.47952   0.00028   0.00000   0.01807   0.01718   0.49670
   D40        2.51144   0.00026   0.00000  -0.00817  -0.01065   2.50079
   D41       -2.90257  -0.00608   0.00000  -0.14511  -0.14502  -3.04759
   D42       -0.00024   0.00002   0.00000   0.00008   0.00008  -0.00016
   D43        0.00077  -0.00001   0.00000  -0.00032  -0.00029   0.00048
   D44        2.90311   0.00609   0.00000   0.14488   0.14481   3.04792
         Item               Value     Threshold  Converged?
 Maximum Force            0.027348     0.000450     NO 
 RMS     Force            0.003315     0.000300     NO 
 Maximum Displacement     0.159806     0.001800     NO 
 RMS     Displacement     0.028720     0.001200     NO 
 Predicted change in Energy=-2.867567D-03
 GradGradGradGradGradGradGradGradGradGradGradGradGradGradGradGradGradGrad

                          Input orientation:                          
 ---------------------------------------------------------------------
 Center     Atomic      Atomic             Coordinates (Angstroms)
 Number     Number       Type             X           Y           Z
 ---------------------------------------------------------------------
      1          6           0       -0.762970    1.181822   -0.334922
      2          6           0       -1.121217    0.729712    0.891373
      3          6           0       -1.120571   -0.737960    0.884878
      4          6           0       -0.762405   -1.178949   -0.345519
      5          1           0       -0.683919    2.212664   -0.648907
      6          1           0       -1.332301    1.335177    1.761997
      7          1           0       -1.331306   -1.351321    1.750041
      8          1           0       -0.683108   -2.206948   -0.668644
      9          6           0       -0.662730    0.005679   -1.289814
     10          1           0       -1.519419    0.008536   -1.984242
     11          1           0        0.257986    0.009060   -1.869597
     12          6           0        1.943492    0.667326    0.165441
     13          1           0        1.852759    1.233149    1.084411
     14          1           0        2.120393    1.238881   -0.741875
     15          6           0        1.942805   -0.668316    0.165459
     16          1           0        2.119498   -1.240480   -0.741453
     17          1           0        1.851620   -1.233858    1.084621
 ---------------------------------------------------------------------
                    Distance matrix (angstroms):
                    1          2          3          4          5
     1  C    0.000000
     2  C    1.355191   0.000000
     3  C    2.302466   1.467687   0.000000
     4  C    2.360794   2.302528   1.355223   0.000000
     5  H    1.080496   2.182393   3.354004   3.406059   0.000000
     6  H    2.178239   1.081263   2.260987   3.329749   2.646288
     7  H    3.329698   2.261006   1.081263   2.178241   4.344658
     8  H    3.406099   3.354037   2.182368   1.080500   4.419656
     9  C    1.518282   2.343504   2.343481   1.518213   2.298259
    10  H    2.160803   2.991291   2.991351   2.160695   2.709125
    11  H    2.184708   3.169306   3.169478   2.185263   2.689450
    12  C    2.800000   3.150128   3.446868   3.315371   3.155078
    13  H    2.976436   3.022456   3.572922   3.834318   3.224682
    14  H    2.912498   3.665349   4.130142   3.783322   2.970027
    15  C    3.315811   3.445237   3.147488   2.800000   3.982827
    16  H    3.787008   4.129166   3.659989   2.909624   4.448810
    17  H    3.832322   3.568012   3.019889   2.980174   4.616556
                    6          7          8          9         10
     6  H    0.000000
     7  H    2.686525   0.000000
     8  H    4.344665   2.646186   0.000000
     9  C    3.395503   3.395462   2.298257   0.000000
    10  H    3.978605   3.978627   2.708982   1.102794   0.000000
    11  H    4.180440   4.180702   2.690471   1.088061   1.781098
    12  C    3.704839   4.160552   3.981981   3.057439   4.128788
    13  H    3.257934   4.154614   4.619316   3.670328   4.721005
    14  H    4.266115   4.983274   4.442828   3.093024   4.038001
    15  C    4.158032   3.700972   3.155714   3.059559   4.131142
    16  H    4.981584   4.257684   2.965461   3.097484   4.043053
    17  H    4.146822   3.253859   3.231978   3.673737   4.724972
                   11         12         13         14         15
    11  H    0.000000
    12  C    2.723165   0.000000
    13  H    3.573214   1.083002   0.000000
    14  H    2.500556   1.086826   1.845800   0.000000
    15  C    2.727436   1.335642   2.113799   2.119479   0.000000
    16  H    2.509838   2.119707   3.086060   2.479361   1.086776
    17  H    3.579374   2.113725   2.467007   3.085898   1.083057
                   16         17
    16  H    0.000000
    17  H    1.845629   0.000000
 Stoichiometry    C7H10
 Framework group  C1[X(C7H10)]
 Deg. of freedom    45
 Full point group                 C1      NOp   1
 Largest Abelian subgroup         C1      NOp   1
 Largest concise Abelian subgroup C1      NOp   1
                         Standard orientation:                         
 ---------------------------------------------------------------------
 Center     Atomic      Atomic             Coordinates (Angstroms)
 Number     Number       Type             X           Y           Z
 ---------------------------------------------------------------------
      1          6           0       -0.749739   -1.181822    0.335342
      2          6           0       -1.113041   -0.730058   -0.889593
      3          6           0       -1.112557    0.737616   -0.883458
      4          6           0       -0.749435    1.178951    0.345361
      5          1           0       -0.669276   -2.212578    0.649253
      6          1           0       -1.327594   -1.335762   -1.759201
      7          1           0       -1.326897    1.350739   -1.747905
      8          1           0       -0.668954    2.207039    0.667910
      9          6           0       -0.645759   -0.005433    1.289531
     10          1           0       -1.499609   -0.008231    1.987446
     11          1           0        0.277313   -0.008555    1.865556
     12          6           0        1.954593   -0.667103   -0.176177
     13          1           0        1.860188   -1.233162   -1.094631
     14          1           0        2.135266   -1.238414    0.730550
     15          6           0        1.953734    0.668539   -0.176517
     16          1           0        2.134050    1.240947    0.729527
     17          1           0        1.858730    1.233845   -1.095437
 ---------------------------------------------------------------------
 Rotational constants (GHZ):           3.6862411           2.2650845           2.1106343
 Standard basis: 3-21G (6D, 7F)
 There are    83 symmetry adapted cartesian basis functions of A   symmetry.
 There are    83 symmetry adapted basis functions of A   symmetry.
    83 basis functions,   135 primitive gaussians,    83 cartesian basis functions
    26 alpha electrons       26 beta electrons
       nuclear repulsion energy       282.7952872846 Hartrees.
 NAtoms=   17 NActive=   17 NUniq=   17 SFac= 1.00D+00 NAtFMM=   60 NAOKFM=F Big=F
 Integral buffers will be    131072 words long.
 Raffenetti 2 integral format.
 Two-electron integral symmetry is turned on.
 One-electron integrals computed using PRISM.
 NBasis=    83 RedAO= T EigKep=  4.42D-03  NBF=    83
 NBsUse=    83 1.00D-06 EigRej= -1.00D+00 NBFU=    83
 Initial guess from the checkpoint file:  "C3.chk"
 B after Tr=    -0.000000   -0.000000    0.000000
         Rot=    0.999998    0.000044    0.001985   -0.000036 Ang=   0.23 deg.
 ExpMin= 1.83D-01 ExpMax= 1.72D+02 ExpMxC= 1.72D+02 IAcc=3 IRadAn=         5 AccDes= 0.00D+00
 Harris functional with IExCor=  402 and IRadAn=       5 diagonalized for initial guess.
 HarFok:  IExCor=  402 AccDes= 0.00D+00 IRadAn=         5 IDoV= 1 UseB2=F ITyADJ=14
 ICtDFT=  3500011 ScaDFX=  1.000000  1.000000  1.000000  1.000000
 FoFCou: FMM=F IPFlag=           0 FMFlag=      100000 FMFlg1=           0
         NFxFlg=           0 DoJE=T BraDBF=F KetDBF=T FulRan=T
         wScrn=  0.000000 ICntrl=       500 IOpCl=  0 I1Cent=   200000004 NGrid=           0
         NMat0=    1 NMatS0=      1 NMatT0=    0 NMatD0=    1 NMtDS0=    0 NMtDT0=    0
 Petite list used in FoFCou.
 Keep R1 ints in memory in canonical form, NReq=7891734.
 Requested convergence on RMS density matrix=1.00D-08 within 128 cycles.
 Requested convergence on MAX density matrix=1.00D-06.
 Requested convergence on             energy=1.00D-06.
 No special actions if energy rises.
 Integral accuracy reduced to 1.0D-05 until final iterations.
 Initial convergence to 1.0D-05 achieved.  Increase integral accuracy.
 SCF Done:  E(RB3LYP) =  -271.190362556     A.U. after   12 cycles
            NFock= 12  Conv=0.54D-08     -V/T= 2.0090
 Calling FoFJK, ICntrl=      2127 FMM=F ISym2X=0 I1Cent= 0 IOpClX= 0 NMat=1 NMatS=1 NMatT=0.
 ***** Axes restored to original set *****
 -------------------------------------------------------------------
 Center     Atomic                   Forces (Hartrees/Bohr)
 Number     Number              X              Y              Z
 -------------------------------------------------------------------
      1        6          -0.008678504    0.002557477   -0.001143974
      2        6           0.000548463    0.000039757    0.000207758
      3        6           0.000480684   -0.000038449    0.000170219
      4        6          -0.008614934   -0.002561549   -0.001143423
      5        1          -0.000258728    0.000181248    0.000006506
      6        1           0.000298137    0.000083010   -0.000013893
      7        1           0.000295279   -0.000082883   -0.000015515
      8        1          -0.000247885   -0.000177427    0.000003556
      9        6           0.004627655    0.000032453    0.002472155
     10        1           0.000462634   -0.000000830    0.001050671
     11        1           0.001041327   -0.000043485   -0.003084742
     12        6           0.007821987   -0.003122892    0.000136325
     13        1          -0.001454133    0.001055839   -0.000451855
     14        1          -0.001333016    0.000359934    0.001054182
     15        6           0.007835322    0.003095964    0.000222434
     16        1          -0.001345983   -0.000332038    0.001002329
     17        1          -0.001478303   -0.001046131   -0.000472732
 -------------------------------------------------------------------
 Cartesian Forces:  Max     0.008678504 RMS     0.002658880

 GradGradGradGradGradGradGradGradGradGradGradGradGradGradGradGradGradGrad
 Berny optimization.
 Using GEDIIS/GDIIS optimizer.
 FormGI is forming the generalized inverse of G from B-inverse, IUseBI=4.
 Internal  Forces:  Max     0.005290758 RMS     0.001012035
 Search for a local minimum.
 Step number   2 out of a maximum of  102
 All quantities printed in internal units (Hartrees-Bohrs-Radians)
 Mixed Optimization -- En-DIIS/RFO-DIIS
 Update second derivatives using D2CorX and points    1    2
 DE= -2.71D-03 DEPred=-2.87D-03 R= 9.45D-01
 TightC=F SS=  1.41D+00  RLast= 3.27D-01 DXNew= 5.0454D-01 9.8152D-01
 Trust test= 9.45D-01 RLast= 3.27D-01 DXMaxT set to 5.05D-01
 ITU=  1  0
 Use linear search instead of GDIIS.
     Eigenvalues ---    0.00856   0.00989   0.01243   0.01521   0.01627
     Eigenvalues ---    0.01811   0.01817   0.01867   0.02211   0.02815
     Eigenvalues ---    0.02937   0.03605   0.03718   0.04663   0.05422
     Eigenvalues ---    0.06821   0.07124   0.09750   0.09799   0.13588
     Eigenvalues ---    0.13789   0.15738   0.15772   0.15971   0.15984
     Eigenvalues ---    0.18198   0.21831   0.28472   0.29599   0.30446
     Eigenvalues ---    0.32864   0.33409   0.33557   0.34385   0.35841
     Eigenvalues ---    0.35841   0.35921   0.35925   0.36104   0.36189
     Eigenvalues ---    0.44022   0.49337   0.535481000.000001000.00000
     Eigenvalues --- 1000.000001000.000001000.000001000.000001000.00000
     Eigenvalues --- 1000.000001000.000001000.000001000.000001000.00000
     Eigenvalues --- 1000.000001000.000001000.000001000.000001000.00000
     Eigenvalues --- 1000.000001000.000001000.000001000.000001000.00000
     Eigenvalues --- 1000.000001000.000001000.000001000.000001000.00000
     Eigenvalues --- 1000.000001000.000001000.000001000.000001000.00000
     Eigenvalues --- 1000.000001000.000001000.000001000.000001000.00000
     Eigenvalues --- 1000.000001000.000001000.000001000.000001000.00000
     Eigenvalues --- 1000.000001000.000001000.000001000.000001000.00000
     Eigenvalues --- 1000.000001000.000001000.000001000.000001000.00000
     Eigenvalues --- 1000.000001000.000001000.000001000.00000
 RFO step:  Lambda=-7.61661336D-04 EMin= 8.55947516D-03
 Quartic linear search produced a step of  0.04189.
 Iteration  1 RMS(Cart)=  0.03015524 RMS(Int)=  0.00044621
 Iteration  2 RMS(Cart)=  0.00044915 RMS(Int)=  0.00021824
 Iteration  3 RMS(Cart)=  0.00000008 RMS(Int)=  0.00021824
 Iteration  1 RMS(Cart)=  0.00000658 RMS(Int)=  0.00000124
 Iteration  2 RMS(Cart)=  0.00000065 RMS(Int)=  0.00000130
 Variable       Old X    -DE/DX   Delta X   Delta X   Delta X     New X
                                 (Linear)    (Quad)   (Total)
    R1        2.56094   0.00002   0.00013   0.00044   0.00063   2.56157
    R2        2.04184   0.00015  -0.00001   0.00042   0.00042   2.04226
    R3        2.86914   0.00139  -0.00006   0.00411   0.00390   2.87303
    R4        5.29123   0.00529   0.00000   0.00000  -0.00000   5.29123
    R5        2.77353   0.00034  -0.00028   0.00043   0.00033   2.77386
    R6        2.04329  -0.00002  -0.00000  -0.00007  -0.00007   2.04322
    R7        2.56100   0.00001   0.00013   0.00041   0.00061   2.56161
    R8        2.04329  -0.00002  -0.00000  -0.00007  -0.00007   2.04322
    R9        2.04185   0.00015  -0.00001   0.00042   0.00041   2.04226
   R10        2.86901   0.00140  -0.00005   0.00417   0.00397   2.87298
   R11        5.29123   0.00527   0.00000   0.00000   0.00000   5.29123
   R12        2.08398  -0.00102   0.00003  -0.00310  -0.00307   2.08091
   R13        2.05614   0.00261  -0.00029   0.00322   0.00289   2.05903
   R14        5.14604  -0.00018   0.00251  -0.01498  -0.01256   5.13348
   R15        4.72537  -0.00006  -0.00490  -0.04453  -0.04946   4.67590
   R16        5.15411  -0.00019   0.00247  -0.01576  -0.01337   5.14074
   R17        4.74291  -0.00009  -0.00499  -0.04662  -0.05166   4.69125
   R18        2.04658   0.00029   0.00038   0.00189   0.00227   2.04884
   R19        2.05380  -0.00089   0.00026  -0.00222  -0.00177   2.05203
   R20        2.52400  -0.00057  -0.00257  -0.00848  -0.01097   2.51303
   R21        2.05371  -0.00087   0.00028  -0.00211  -0.00165   2.05206
   R22        2.04668   0.00027   0.00035   0.00175   0.00210   2.04878
    A1        2.21502  -0.00013  -0.00007   0.00034   0.00037   2.21539
    A2        1.90512   0.00006  -0.00003   0.00243   0.00162   1.90674
    A3        2.15491   0.00014  -0.00007   0.00161   0.00166   2.15657
    A4        1.90656   0.00026  -0.00007   0.00293   0.00253   1.90909
    A5        2.20608  -0.00027   0.00003  -0.00202  -0.00189   2.20419
    A6        2.16954   0.00002   0.00002  -0.00022  -0.00010   2.16944
    A7        1.90660   0.00027  -0.00007   0.00292   0.00253   1.90913
    A8        2.16957   0.00002   0.00002  -0.00024  -0.00012   2.16946
    A9        2.20603  -0.00027   0.00003  -0.00204  -0.00191   2.20412
   A10        2.21491  -0.00013  -0.00006   0.00038   0.00043   2.21534
   A11        1.90513   0.00006  -0.00003   0.00236   0.00156   1.90669
   A12        2.15501   0.00014  -0.00007   0.00157   0.00162   2.15663
   A13        1.78128  -0.00030  -0.00026   0.00466   0.00380   1.78508
   A14        1.92063  -0.00081   0.00045  -0.01102  -0.01048   1.91015
   A15        1.96990   0.00109  -0.00053   0.00869   0.00830   1.97820
   A16        1.92056  -0.00080   0.00045  -0.01099  -0.01044   1.91013
   A17        1.97078   0.00108  -0.00053   0.00858   0.00818   1.97896
   A18        1.89843  -0.00032   0.00044  -0.00063  -0.00026   1.89817
   A19        1.69743   0.00002  -0.00003  -0.00811  -0.00812   1.68931
   A20        1.97302  -0.00038  -0.00091  -0.01234  -0.01334   1.95968
   A21        1.69548   0.00003  -0.00003  -0.00790  -0.00790   1.68758
   A22        1.96769  -0.00035  -0.00090  -0.01178  -0.01275   1.95493
   A23        0.83034  -0.00007  -0.00023   0.00397   0.00360   0.83394
   A24        0.83059  -0.00008  -0.00024   0.00392   0.00355   0.83414
   A25        1.03530   0.00027   0.00102   0.01247   0.01323   1.04854
   A26        2.35825  -0.00119  -0.00120  -0.01799  -0.01909   2.33916
   A27        2.03450  -0.00109  -0.00006  -0.00692  -0.00771   2.02680
   A28        2.12046   0.00048   0.00038   0.00548   0.00570   2.12616
   A29        2.12467   0.00074   0.00051   0.00498   0.00487   2.12954
   A30        2.36159  -0.00120  -0.00122  -0.01838  -0.01950   2.34209
   A31        2.12514   0.00072   0.00048   0.00473   0.00459   2.12973
   A32        2.12026   0.00048   0.00041   0.00568   0.00594   2.12620
   A33        2.03420  -0.00106  -0.00006  -0.00682  -0.00763   2.02657
    D1        3.12664  -0.00040   0.00008  -0.00972  -0.00971   3.11693
    D2       -0.06181  -0.00007  -0.00071   0.00617   0.00544  -0.05637
    D3        0.11903  -0.00100   0.00163  -0.04571  -0.04415   0.07489
    D4       -3.06942  -0.00067   0.00085  -0.02982  -0.02900  -3.09842
    D5       -0.17890   0.00155  -0.00242   0.06817   0.06581  -0.11309
    D6        1.85973   0.00014  -0.00185   0.05332   0.05144   1.91117
    D7       -2.29919  -0.00010  -0.00133   0.05055   0.04921  -2.24998
    D8        3.09108   0.00100  -0.00093   0.03381   0.03290   3.12398
    D9       -1.15347  -0.00041  -0.00036   0.01896   0.01852  -1.13495
   D10        0.97079  -0.00065   0.00016   0.01619   0.01630   0.98709
   D11       -0.00039   0.00002  -0.00003   0.00085   0.00081   0.00042
   D12        3.09615   0.00031  -0.00076   0.01524   0.01454   3.11069
   D13       -3.09632  -0.00029   0.00073  -0.01458  -0.01390  -3.11022
   D14        0.00022  -0.00000   0.00000  -0.00018  -0.00018   0.00004
   D15       -3.12605   0.00039  -0.00006   0.00888   0.00889  -3.11716
   D16       -0.11843   0.00098  -0.00158   0.04440   0.04289  -0.07554
   D17        0.06178   0.00008   0.00069  -0.00596  -0.00524   0.05654
   D18        3.06939   0.00067  -0.00083   0.02956   0.02876   3.09815
   D19        0.17866  -0.00154   0.00240  -0.06765  -0.06531   0.11335
   D20       -1.86002  -0.00012   0.00183  -0.05277  -0.05090  -1.91092
   D21        2.29834   0.00012   0.00131  -0.04994  -0.04862   2.24972
   D22       -3.09134  -0.00101   0.00094  -0.03372  -0.03281  -3.12415
   D23        1.15317   0.00042   0.00037  -0.01884  -0.01840   1.13477
   D24       -0.97166   0.00066  -0.00015  -0.01602  -0.01612  -0.98777
   D25        0.75530   0.00058  -0.00015   0.00902   0.00870   0.76401
   D26        0.43873   0.00047  -0.00086   0.00483   0.00396   0.44269
   D27        1.25445   0.00048  -0.00093   0.00832   0.00727   1.26172
   D28        1.57283   0.00058  -0.00021   0.01230   0.01179   1.58462
   D29       -1.25388  -0.00048   0.00092  -0.00838  -0.00734  -1.26123
   D30       -1.57046  -0.00059   0.00020  -0.01258  -0.01208  -1.58254
   D31       -0.75474  -0.00057   0.00014  -0.00909  -0.00877  -0.76351
   D32       -0.43636  -0.00048   0.00085  -0.00511  -0.00425  -0.44061
   D33        2.89205   0.00005   0.00039   0.00033   0.00069   2.89274
   D34        2.57548  -0.00006  -0.00033  -0.00386  -0.00405   2.57143
   D35       -2.89199  -0.00004  -0.00039  -0.00037  -0.00074  -2.89273
   D36       -2.57361   0.00005   0.00032   0.00361   0.00378  -2.56983
   D37       -0.51004  -0.00037  -0.00064  -0.00385  -0.00432  -0.51436
   D38       -2.50498   0.00012   0.00051   0.00584   0.00659  -2.49838
   D39        0.49670   0.00040   0.00072   0.00565   0.00620   0.50290
   D40        2.50079  -0.00012  -0.00045  -0.00505  -0.00576   2.49503
   D41       -3.04759  -0.00177  -0.00607  -0.04650  -0.05258  -3.10017
   D42       -0.00016   0.00001   0.00000   0.00008   0.00008  -0.00008
   D43        0.00048  -0.00000  -0.00001  -0.00029  -0.00030   0.00018
   D44        3.04792   0.00178   0.00607   0.04628   0.05236   3.10027
         Item               Value     Threshold  Converged?
 Maximum Force            0.001782     0.000450     NO 
 RMS     Force            0.000639     0.000300     NO 
 Maximum Displacement     0.127726     0.001800     NO 
 RMS     Displacement     0.030102     0.001200     NO 
 Predicted change in Energy=-4.033369D-04
 GradGradGradGradGradGradGradGradGradGradGradGradGradGradGradGradGradGrad

                          Input orientation:                          
 ---------------------------------------------------------------------
 Center     Atomic      Atomic             Coordinates (Angstroms)
 Number     Number       Type             X           Y           Z
 ---------------------------------------------------------------------
      1          6           0       -0.772086    1.185244   -0.348291
      2          6           0       -1.077956    0.729903    0.891285
      3          6           0       -1.077906   -0.737946    0.884824
      4          6           0       -0.771478   -1.182399   -0.358583
      5          1           0       -0.714827    2.216819   -0.665345
      6          1           0       -1.264711    1.335343    1.767420
      7          1           0       -1.264655   -1.351100    1.755580
      8          1           0       -0.713849   -2.211176   -0.684534
      9          6           0       -0.649581    0.005546   -1.299477
     10          1           0       -1.500481    0.008346   -1.998431
     11          1           0        0.276033    0.008769   -1.874312
     12          6           0        1.927801    0.664427    0.180258
     13          1           0        1.804387    1.235846    1.093354
     14          1           0        2.089184    1.240296   -0.726101
     15          6           0        1.927194   -0.665409    0.179836
     16          1           0        2.088200   -1.241028   -0.726762
     17          1           0        1.803338   -1.237307    1.092530
 ---------------------------------------------------------------------
                    Distance matrix (angstroms):
                    1          2          3          4          5
     1  C    0.000000
     2  C    1.355522   0.000000
     3  C    2.304942   1.467863   0.000000
     4  C    2.367665   2.304994   1.355543   0.000000
     5  H    1.080717   2.183089   3.356410   3.413502   0.000000
     6  H    2.177486   1.081225   2.261061   3.331995   2.645320
     7  H    3.331957   2.261070   1.081225   2.177468   4.346634
     8  H    3.413520   3.356446   2.183079   1.080717   4.428037
     9  C    1.520345   2.346836   2.346789   1.520314   2.301327
    10  H    2.153743   3.008261   3.008103   2.153699   2.696614
    11  H    2.193487   3.162570   3.162841   2.193991   2.705344
    12  C    2.800000   3.089405   3.390772   3.314698   3.179378
    13  H    2.952814   2.933379   3.499564   3.819831   3.225177
    14  H    2.886630   3.592661   4.066814   3.766684   2.969809
    15  C    3.315108   3.388802   3.087538   2.800000   4.000230
    16  H    3.769784   4.065365   3.588109   2.883877   4.451678
    17  H    3.818052   3.494606   2.931564   2.956082   4.621933
                    6          7          8          9         10
     6  H    0.000000
     7  H    2.686469   0.000000
     8  H    4.346646   2.645236   0.000000
     9  C    3.398912   3.398850   2.301336   0.000000
    10  H    3.999768   3.999538   2.696552   1.101170   0.000000
    11  H    4.170839   4.171220   2.706214   1.089590   1.780845
    12  C    3.627856   4.090937   3.999409   3.044115   4.114638
    13  H    3.143824   4.068151   4.624322   3.641598   4.689141
    14  H    4.180346   4.911447   4.446502   3.058463   4.002776
    15  C    4.087993   3.625057   3.179880   3.046033   4.116764
    16  H    4.909241   4.173221   2.965543   3.062253   4.007082
    17  H    4.060410   3.140886   3.231502   3.644611   4.692644
                   11         12         13         14         15
    11  H    0.000000
    12  C    2.716520   0.000000
    13  H    3.556490   1.084201   0.000000
    14  H    2.474381   1.085890   1.841615   0.000000
    15  C    2.720363   1.329837   2.112904   2.116289   0.000000
    16  H    2.482501   2.116406   3.086791   2.481325   1.085901
    17  H    3.561954   2.112895   2.473153   3.086689   1.084167
                   16         17
    16  H    0.000000
    17  H    1.841463   0.000000
 Stoichiometry    C7H10
 Framework group  C1[X(C7H10)]
 Deg. of freedom    45
 Full point group                 C1      NOp   1
 Largest Abelian subgroup         C1      NOp   1
 Largest concise Abelian subgroup C1      NOp   1
                         Standard orientation:                         
 ---------------------------------------------------------------------
 Center     Atomic      Atomic             Coordinates (Angstroms)
 Number     Number       Type             X           Y           Z
 ---------------------------------------------------------------------
      1          6           0       -0.771080   -1.185160    0.331402
      2          6           0       -1.054546   -0.730499   -0.913738
      3          6           0       -1.054813    0.737353   -0.908032
      4          6           0       -0.770984    1.182488    0.340485
      5          1           0       -0.719423   -2.216564    0.649969
      6          1           0       -1.225342   -1.336414   -1.792795
      7          1           0       -1.225869    1.350035   -1.782338
      8          1           0       -0.719401    2.211440    0.666896
      9          6           0       -0.665960   -0.004958    1.284041
     10          1           0       -1.529361   -0.007525    1.967493
     11          1           0        0.249107   -0.007751    1.875522
     12          6           0        1.937852   -0.664218   -0.148502
     13          1           0        1.831050   -1.236122   -1.063386
     14          1           0        2.082896   -1.239600    0.760924
     15          6           0        1.937054    0.665618   -0.148775
     16          1           0        2.081559    1.241725    0.760291
     17          1           0        1.829646    1.237031   -1.063854
 ---------------------------------------------------------------------
 Rotational constants (GHZ):           3.6618881           2.3032510           2.1490819
 Standard basis: 3-21G (6D, 7F)
 There are    83 symmetry adapted cartesian basis functions of A   symmetry.
 There are    83 symmetry adapted basis functions of A   symmetry.
    83 basis functions,   135 primitive gaussians,    83 cartesian basis functions
    26 alpha electrons       26 beta electrons
       nuclear repulsion energy       283.5420339314 Hartrees.
 NAtoms=   17 NActive=   17 NUniq=   17 SFac= 1.00D+00 NAtFMM=   60 NAOKFM=F Big=F
 Integral buffers will be    131072 words long.
 Raffenetti 2 integral format.
 Two-electron integral symmetry is turned on.
 One-electron integrals computed using PRISM.
 NBasis=    83 RedAO= T EigKep=  4.45D-03  NBF=    83
 NBsUse=    83 1.00D-06 EigRej= -1.00D+00 NBFU=    83
 Initial guess from the checkpoint file:  "C3.chk"
 B after Tr=     0.000000   -0.000000    0.000000
         Rot=    0.999943    0.000151    0.010643   -0.000011 Ang=   1.22 deg.
 ExpMin= 1.83D-01 ExpMax= 1.72D+02 ExpMxC= 1.72D+02 IAcc=3 IRadAn=         5 AccDes= 0.00D+00
 Harris functional with IExCor=  402 and IRadAn=       5 diagonalized for initial guess.
 HarFok:  IExCor=  402 AccDes= 0.00D+00 IRadAn=         5 IDoV= 1 UseB2=F ITyADJ=14
 ICtDFT=  3500011 ScaDFX=  1.000000  1.000000  1.000000  1.000000
 FoFCou: FMM=F IPFlag=           0 FMFlag=      100000 FMFlg1=           0
         NFxFlg=           0 DoJE=T BraDBF=F KetDBF=T FulRan=T
         wScrn=  0.000000 ICntrl=       500 IOpCl=  0 I1Cent=   200000004 NGrid=           0
         NMat0=    1 NMatS0=      1 NMatT0=    0 NMatD0=    1 NMtDS0=    0 NMtDT0=    0
 Petite list used in FoFCou.
 Keep R1 ints in memory in canonical form, NReq=7891734.
 Requested convergence on RMS density matrix=1.00D-08 within 128 cycles.
 Requested convergence on MAX density matrix=1.00D-06.
 Requested convergence on             energy=1.00D-06.
 No special actions if energy rises.
 Integral accuracy reduced to 1.0D-05 until final iterations.
 Initial convergence to 1.0D-05 achieved.  Increase integral accuracy.
 SCF Done:  E(RB3LYP) =  -271.190454717     A.U. after   11 cycles
            NFock= 11  Conv=0.52D-08     -V/T= 2.0089
 Calling FoFJK, ICntrl=      2127 FMM=F ISym2X=0 I1Cent= 0 IOpClX= 0 NMat=1 NMatS=1 NMatT=0.
 ***** Axes restored to original set *****
 -------------------------------------------------------------------
 Center     Atomic                   Forces (Hartrees/Bohr)
 Number     Number              X              Y              Z
 -------------------------------------------------------------------
      1        6          -0.004172653   -0.000047562    0.000381911
      2        6          -0.001260747    0.000291422   -0.001356980
      3        6          -0.001171728   -0.000276732   -0.001333856
      4        6          -0.004184088    0.000045442    0.000358425
      5        1           0.000305473   -0.000075699    0.000023767
      6        1          -0.000184322    0.000068570   -0.000038934
      7        1          -0.000182571   -0.000067898   -0.000037491
      8        1           0.000298810    0.000076403    0.000021061
      9        6          -0.002588153    0.000018270    0.002758830
     10        1          -0.000078729   -0.000001552   -0.000775972
     11        1           0.000303324   -0.000037270   -0.001692060
     12        6           0.006287850    0.003147776    0.001138285
     13        1           0.000067414    0.000083579   -0.000719468
     14        1           0.000118550    0.000339676    0.000447459
     15        6           0.006288846   -0.003158638    0.001075102
     16        1           0.000111588   -0.000314519    0.000438245
     17        1           0.000041135   -0.000091267   -0.000688323
 -------------------------------------------------------------------
 Cartesian Forces:  Max     0.006288846 RMS     0.001788635

 GradGradGradGradGradGradGradGradGradGradGradGradGradGradGradGradGradGrad
 Berny optimization.
 Using GEDIIS/GDIIS optimizer.
 FormGI is forming the generalized inverse of G from B-inverse, IUseBI=4.
 Internal  Forces:  Max     0.006291092 RMS     0.001145050
 Search for a local minimum.
 Step number   3 out of a maximum of  102
 All quantities printed in internal units (Hartrees-Bohrs-Radians)
 Mixed Optimization -- En-DIIS/RFO-DIIS
 Swapping is turned off.
 Update second derivatives using D2CorX and points    1    2    3
 DE= -9.22D-05 DEPred=-4.03D-04 R= 2.28D-01
 Trust test= 2.28D-01 RLast= 2.05D-01 DXMaxT set to 5.05D-01
 ITU=  0  1  0
     Eigenvalues ---    0.01001   0.01128   0.01234   0.01412   0.01639
     Eigenvalues ---    0.01810   0.01864   0.02124   0.02394   0.02830
     Eigenvalues ---    0.02954   0.03601   0.03740   0.04659   0.05409
     Eigenvalues ---    0.06362   0.07663   0.09152   0.09872   0.13573
     Eigenvalues ---    0.13727   0.15854   0.15877   0.15987   0.15990
     Eigenvalues ---    0.18188   0.21932   0.28500   0.29651   0.30227
     Eigenvalues ---    0.32776   0.33397   0.33530   0.34481   0.35841
     Eigenvalues ---    0.35842   0.35924   0.35928   0.36167   0.36228
     Eigenvalues ---    0.47085   0.49456   0.540811000.000001000.00000
     Eigenvalues --- 1000.000001000.000001000.000001000.000001000.00000
     Eigenvalues --- 1000.000001000.000001000.000001000.000001000.00000
     Eigenvalues --- 1000.000001000.000001000.000001000.000001000.00000
     Eigenvalues --- 1000.000001000.000001000.000001000.000001000.00000
     Eigenvalues --- 1000.000001000.000001000.000001000.000001000.00000
     Eigenvalues --- 1000.000001000.000001000.000001000.000001000.00000
     Eigenvalues --- 1000.000001000.000001000.000001000.000001000.00000
     Eigenvalues --- 1000.000001000.000001000.000001000.000001000.00000
     Eigenvalues --- 1000.000001000.000001000.000001000.000001000.00000
     Eigenvalues --- 1000.000001000.000001000.000001000.000001000.00000
     Eigenvalues --- 1000.000001000.000001000.000001000.00000
 En-DIIS/RFO-DIIS/Sim-DIIS IScMMF=       -3 using points:     3    2
 RFO step:  Lambda=-5.06677432D-04.
 DidBck=T Rises=F RFO-DIIS coefs:    0.53846    0.46154
 Iteration  1 RMS(Cart)=  0.02809710 RMS(Int)=  0.00034099
 Iteration  2 RMS(Cart)=  0.00045146 RMS(Int)=  0.00005229
 Iteration  3 RMS(Cart)=  0.00000005 RMS(Int)=  0.00005229
 Iteration  1 RMS(Cart)=  0.00000035 RMS(Int)=  0.00000007
 Variable       Old X    -DE/DX   Delta X   Delta X   Delta X     New X
                                 (Linear)    (Quad)   (Total)
    R1        2.56157  -0.00121  -0.00029  -0.00075  -0.00104   2.56053
    R2        2.04226  -0.00006  -0.00019   0.00023   0.00004   2.04230
    R3        2.87303  -0.00033  -0.00180   0.00187   0.00008   2.87311
    R4        5.29123   0.00629   0.00000   0.00000   0.00000   5.29123
    R5        2.77386  -0.00042  -0.00015   0.00021   0.00005   2.77391
    R6        2.04322   0.00004   0.00003   0.00000   0.00004   2.04326
    R7        2.56161  -0.00121  -0.00028  -0.00075  -0.00103   2.56057
    R8        2.04322   0.00004   0.00003   0.00001   0.00004   2.04326
    R9        2.04226  -0.00006  -0.00019   0.00023   0.00004   2.04230
   R10        2.87298  -0.00034  -0.00183   0.00193   0.00010   2.87308
   R11        5.29123   0.00627  -0.00000   0.00000  -0.00000   5.29123
   R12        2.08091   0.00055   0.00142  -0.00149  -0.00007   2.08084
   R13        2.05903   0.00221  -0.00133   0.00464   0.00330   2.06233
   R14        5.13348   0.00006   0.00580  -0.02395  -0.01814   5.11534
   R15        4.67590   0.00044   0.02283  -0.03388  -0.01104   4.66486
   R16        5.14074   0.00005   0.00617  -0.02489  -0.01871   5.12203
   R17        4.69125   0.00042   0.02384  -0.03631  -0.01245   4.67880
   R18        2.04884  -0.00057  -0.00105   0.00072  -0.00032   2.04852
   R19        2.05203  -0.00073   0.00082  -0.00226  -0.00150   2.05054
   R20        2.51303   0.00376   0.00506  -0.00234   0.00270   2.51573
   R21        2.05206  -0.00074   0.00076  -0.00220  -0.00149   2.05057
   R22        2.04878  -0.00054  -0.00097   0.00065  -0.00031   2.04846
    A1        2.21539  -0.00022  -0.00017  -0.00045  -0.00067   2.21473
    A2        1.90674   0.00039  -0.00075  -0.00104  -0.00179   1.90495
    A3        2.15657  -0.00024  -0.00076   0.00049  -0.00032   2.15625
    A4        1.90909  -0.00011  -0.00117   0.00042  -0.00075   1.90835
    A5        2.20419   0.00001   0.00087  -0.00116  -0.00031   2.20388
    A6        2.16944   0.00010   0.00004   0.00057   0.00060   2.17004
    A7        1.90913  -0.00011  -0.00117   0.00043  -0.00073   1.90840
    A8        2.16946   0.00010   0.00005   0.00056   0.00059   2.17005
    A9        2.20412   0.00001   0.00088  -0.00117  -0.00030   2.20382
   A10        2.21534  -0.00022  -0.00020  -0.00040  -0.00064   2.21470
   A11        1.90669   0.00039  -0.00072  -0.00107  -0.00179   1.90490
   A12        2.15663  -0.00024  -0.00075   0.00047  -0.00033   2.15630
   A13        1.78508  -0.00069  -0.00176  -0.00067  -0.00241   1.78268
   A14        1.91015   0.00044   0.00484  -0.00668  -0.00184   1.90831
   A15        1.97820   0.00072  -0.00383   0.01097   0.00715   1.98534
   A16        1.91013   0.00044   0.00482  -0.00669  -0.00187   1.90825
   A17        1.97896   0.00070  -0.00378   0.01090   0.00713   1.98609
   A18        1.89817  -0.00150   0.00012  -0.00819  -0.00807   1.89010
   A19        1.68931   0.00116   0.00375  -0.00655  -0.00283   1.68649
   A20        1.95968   0.00090   0.00616  -0.00877  -0.00260   1.95707
   A21        1.68758   0.00116   0.00365  -0.00627  -0.00265   1.68493
   A22        1.95493   0.00091   0.00589  -0.00803  -0.00214   1.95279
   A23        0.83394   0.00054  -0.00166   0.00535   0.00374   0.83768
   A24        0.83414   0.00054  -0.00164   0.00532   0.00373   0.83787
   A25        1.04854   0.00048  -0.00611   0.01128   0.00527   1.05380
   A26        2.33916   0.00000   0.00881  -0.01609  -0.00731   2.33185
   A27        2.02680  -0.00035   0.00356  -0.00829  -0.00450   2.02230
   A28        2.12616   0.00052  -0.00263   0.00489   0.00231   2.12847
   A29        2.12954  -0.00017  -0.00225   0.00450   0.00245   2.13199
   A30        2.34209  -0.00001   0.00900  -0.01655  -0.00758   2.33450
   A31        2.12973  -0.00016  -0.00212   0.00430   0.00239   2.13211
   A32        2.12620   0.00050  -0.00274   0.00499   0.00229   2.12849
   A33        2.02657  -0.00034   0.00352  -0.00818  -0.00441   2.02216
    D1        3.11693  -0.00016   0.00448  -0.00207   0.00243   3.11936
    D2       -0.05637  -0.00024  -0.00251  -0.00799  -0.01048  -0.06686
    D3        0.07489   0.00070   0.02038   0.00901   0.02940   0.10429
    D4       -3.09842   0.00062   0.01339   0.00310   0.01649  -3.08193
    D5       -0.11309  -0.00100  -0.03037  -0.01355  -0.04393  -0.15702
    D6        1.91117  -0.00066  -0.02374  -0.02427  -0.04801   1.86315
    D7       -2.24998  -0.00178  -0.02271  -0.03216  -0.05486  -2.30485
    D8        3.12398  -0.00017  -0.01518  -0.00286  -0.01803   3.10595
    D9       -1.13495   0.00017  -0.00855  -0.01357  -0.02212  -1.15707
   D10        0.98709  -0.00096  -0.00752  -0.02147  -0.02897   0.95812
   D11        0.00042  -0.00002  -0.00037   0.00002  -0.00036   0.00007
   D12        3.11069  -0.00008  -0.00671  -0.00582  -0.01255   3.09814
[...]
 ! D3    D(9,1,2,3)              5.8894         -DE/DX =   -0.0001              !
 ! D4    D(9,1,2,6)           -176.3063         -DE/DX =    0.0                 !
 ! D5    D(2,1,9,4)             -8.8822         -DE/DX =    0.0002              !
 ! D6    D(2,1,9,10)           106.2382         -DE/DX =    0.0                 !
 ! D7    D(2,1,9,11)          -132.7701         -DE/DX =   -0.0003              !
 ! D8    D(5,1,9,4)            177.9899         -DE/DX =    0.0002              !
 ! D9    D(5,1,9,10)           -66.8897         -DE/DX =   -0.0001              !
 ! D10   D(5,1,9,11)            54.102          -DE/DX =   -0.0003              !
 ! D11   D(1,2,3,4)              0.0079         -DE/DX =    0.0                 !
 ! D12   D(1,2,3,7)            177.8543         -DE/DX =    0.0001              !
 ! D13   D(6,2,3,4)           -177.8493         -DE/DX =   -0.0001              !
 ! D14   D(6,2,3,7)             -0.0028         -DE/DX =    0.0                 !
 ! D15   D(2,3,4,8)           -178.7323         -DE/DX =    0.0001              !
 ! D16   D(2,3,4,9)             -5.9016         -DE/DX =    0.0001              !
 ! D17   D(7,3,4,8)              3.4744         -DE/DX =    0.0                 !
 ! D18   D(7,3,4,9)            176.305          -DE/DX =    0.0001              !
 ! D19   D(3,4,9,1)              8.8871         -DE/DX =   -0.0002              !
 ! D20   D(3,4,9,10)          -106.2323         -DE/DX =    0.0                 !
 ! D21   D(3,4,9,11)           132.7788         -DE/DX =    0.0003              !
 ! D22   D(8,4,9,1)           -177.9887         -DE/DX =   -0.0002              !
 ! D23   D(8,4,9,10)            66.892          -DE/DX =    0.0001              !
 ! D24   D(8,4,9,11)           -54.097          -DE/DX =    0.0003              !
 ! D25   D(1,9,11,12)           44.4297         -DE/DX =    0.0002              !
 ! D26   D(1,9,11,14)           26.5949         -DE/DX =    0.0                 !
 ! D27   D(1,9,11,15)           72.7852         -DE/DX =    0.0001              !
 ! D28   D(1,9,11,16)           90.6027         -DE/DX =    0.0003              !
 ! D29   D(4,9,11,12)          -72.7811         -DE/DX =   -0.0001              !
 ! D30   D(4,9,11,14)          -90.6159         -DE/DX =   -0.0003              !
 ! D31   D(4,9,11,15)          -44.4256         -DE/DX =   -0.0002              !
 ! D32   D(4,9,11,16)          -26.6081         -DE/DX =    0.0                 !
 ! D33   D(10,9,11,12)         165.8253         -DE/DX =    0.0                 !
 ! D34   D(10,9,11,14)         147.9904         -DE/DX =   -0.0002              !
 ! D35   D(10,9,11,15)        -165.8193         -DE/DX =    0.0                 !
 ! D36   D(10,9,11,16)        -148.0017         -DE/DX =    0.0002              !
 ! D37   D(9,11,12,13)         -29.1614         -DE/DX =    0.0001              !
 ! D38   D(16,11,12,13)       -143.1569         -DE/DX =    0.0                 !
 ! D39   D(9,11,15,17)          29.278          -DE/DX =   -0.0001              !
 ! D40   D(14,11,15,17)        143.1883         -DE/DX =    0.0                 !
 ! D41   D(13,12,15,16)       -177.5645         -DE/DX =   -0.0001              !
 ! D42   D(13,12,15,17)          0.0034         -DE/DX =    0.0                 !
 ! D43   D(14,12,15,16)         -0.0087         -DE/DX =    0.0                 !
 ! D44   D(14,12,15,17)        177.5592         -DE/DX =    0.0001              !
 --------------------------------------------------------------------------------
 GradGradGradGradGradGradGradGradGradGradGradGradGradGradGradGradGradGrad

                          Input orientation:                          
 ---------------------------------------------------------------------
 Center     Atomic      Atomic             Coordinates (Angstroms)
 Number     Number       Type             X           Y           Z
 ---------------------------------------------------------------------
      1          6           0       -0.759383    1.183831   -0.333545
      2          6           0       -1.110611    0.731102    0.894550
      3          6           0       -1.110629   -0.736815    0.889734
      4          6           0       -0.759243   -1.181473   -0.341257
      5          1           0       -0.688122    2.214741   -0.649631
      6          1           0       -1.323579    1.338028    1.763701
      7          1           0       -1.323571   -1.349420    1.754898
      8          1           0       -0.687839   -2.210287   -0.664071
      9          6           0       -0.642347    0.004273   -1.283419
     10          1           0       -1.510372    0.006459   -1.964139
     11          1           0        0.264637    0.006239   -1.889153
     12          6           0        1.946943    0.666544    0.164665
     13          1           0        1.804924    1.235107    1.075717
     14          1           0        2.127309    1.247180   -0.734837
     15          6           0        1.947260   -0.667370    0.159280
     16          1           0        2.127767   -1.240604   -0.744928
     17          1           0        1.805462   -1.243359    1.065686
 ---------------------------------------------------------------------
                    Distance matrix (angstroms):
                    1          2          3          4          5
     1  C    0.000000
     2  C    1.355191   0.000000
     3  C    2.304054   1.467924   0.000000
     4  C    2.365317   2.304045   1.355187   0.000000
     5  H    1.080631   2.182699   3.355568   3.410927   0.000000
     6  H    2.177277   1.081267   2.261446   3.331248   2.645109
     7  H    3.331256   2.261442   1.081267   2.177278   4.346125
     8  H    3.410924   3.355563   2.182700   1.080631   4.425051
     9  C    1.518985   2.343309   2.343308   1.518989   2.299989
    10  H    2.146865   2.976075   2.976045   2.146887   2.698247
    11  H    2.203464   3.188374   3.188369   2.203400   2.705853
    12  C    2.800000   3.144127   3.441495   3.315806   3.162840
    13  H    2.926486   2.964319   3.524700   3.797714   3.186187
    14  H    2.915140   3.661333   4.130340   3.792815   2.978269
    15  C    3.315983   3.441935   3.144689   2.800000   3.988250
    16  H    3.792461   4.130690   3.662394   2.915694   4.458444
    17  H    3.798359   3.525799   2.964984   2.925924   4.595512
                    6          7          8          9         10
     6  H    0.000000
     7  H    2.687463   0.000000
     8  H    4.346122   2.645119   0.000000
     9  C    3.395279   3.395279   2.299986   0.000000
    10  H    3.962924   3.962896   2.698277   1.103110   0.000000
    11  H    4.199932   4.199919   2.705739   1.090659   1.776593
    12  C    3.701908   4.158030   3.988112   3.039733   4.113459
    13  H    3.204909   4.114431   4.594722   3.615192   4.662778
    14  H    4.261405   4.984946   4.459164   3.084924   4.035257
    15  C    4.158627   3.702637   3.162633   3.039499   4.113171
    16  H    4.985414   4.262945   2.979003   3.084352   4.034563
    17  H    4.116027   3.205792   3.184895   3.614782   4.662257
                   11         12         13         14         15
    11  H    0.000000
    12  C    2.735749   0.000000
    13  H    3.559923   1.083260   0.000000
    14  H    2.518318   1.085714   1.839072   0.000000
    15  C    2.735150   1.333925   2.116492   2.120700   0.000000
    16  H    2.516967   2.120677   3.090004   2.487805   1.085713
    17  H    3.559032   2.116503   2.478487   3.090026   1.083255
                   16         17
    16  H    0.000000
    17  H    1.839079   0.000000
 Stoichiometry    C7H10
 Framework group  C1[X(C7H10)]
 Deg. of freedom    45
 Full point group                 C1      NOp   1
 Largest Abelian subgroup         C1      NOp   1
 Largest concise Abelian subgroup C1      NOp   1
                         Standard orientation:                         
 ---------------------------------------------------------------------
 Center     Atomic      Atomic             Coordinates (Angstroms)
 Number     Number       Type             X           Y           Z
 ---------------------------------------------------------------------
      1          6           0       -0.748867   -1.182389    0.345782
      2          6           0       -1.115207   -0.734466   -0.879657
      3          6           0       -1.115157    0.733458   -0.880605
      4          6           0       -0.748618    1.182927    0.344205
      5          1           0       -0.673720   -2.212054    0.665011
      6          1           0       -1.338879   -1.344788   -1.743727
      7          1           0       -1.338747    1.342674   -1.745477
      8          1           0       -0.673233    2.212997    0.662071
      9          6           0       -0.620122    0.000883    1.289502
     10          1           0       -1.479687    0.001417    1.980876
     11          1           0        0.294263    0.001246    1.884010
     12          6           0        1.951114   -0.667209   -0.187785
     13          1           0        1.797869   -1.239337   -1.094778
     14          1           0        2.142553   -1.244319    0.711698
     15          6           0        1.951505    0.666716   -0.187643
     16          1           0        2.143150    1.243486    0.712013
     17          1           0        1.798545    1.239150   -1.094486
 ---------------------------------------------------------------------
 Rotational constants (GHZ):           3.6856669           2.2759966           2.1170752

 **********************************************************************

            Population analysis using the SCF Density.

 **********************************************************************

 Orbital symmetries:
       Occupied  (A) (A) (A) (A) (A) (A) (A) (A) (A) (A) (A) (A)
                 (A) (A) (A) (A) (A) (A) (A) (A) (A) (A) (A) (A)
                 (A) (A)
       Virtual   (A) (A) (A) (A) (A) (A) (A) (A) (A) (A) (A) (A)
                 (A) (A) (A) (A) (A) (A) (A) (A) (A) (A) (A) (A)
                 (A) (A) (A) (A) (A) (A) (A) (A) (A) (A) (A) (A)
                 (A) (A) (A) (A) (A) (A) (A) (A) (A) (A) (A) (A)
                 (A) (A) (A) (A) (A) (A) (A) (A) (A)
 The electronic state is 1-A.
 Alpha  occ. eigenvalues --  -10.12288 -10.11990 -10.11956 -10.11658 -10.11541
 Alpha  occ. eigenvalues --  -10.10149 -10.10050  -0.85398  -0.74300  -0.70261
 Alpha  occ. eigenvalues --   -0.69888  -0.56292  -0.54979  -0.52602  -0.51341
 Alpha  occ. eigenvalues --   -0.45644  -0.43280  -0.40692  -0.39956  -0.37496
 Alpha  occ. eigenvalues --   -0.35834  -0.35506  -0.33792  -0.29972  -0.23985
 Alpha  occ. eigenvalues --   -0.21421
 Alpha virt. eigenvalues --   -0.00769   0.04192   0.09916   0.12369   0.15151
 Alpha virt. eigenvalues --    0.16683   0.17708   0.17955   0.19317   0.19510
 Alpha virt. eigenvalues --    0.20116   0.22009   0.22938   0.26100   0.28830
 Alpha virt. eigenvalues --    0.37804   0.38345   0.40890   0.47385   0.65255
 Alpha virt. eigenvalues --    0.66969   0.69650   0.70760   0.72506   0.73989
 Alpha virt. eigenvalues --    0.75429   0.76791   0.78946   0.80570   0.82741
 Alpha virt. eigenvalues --    0.84837   0.85831   0.86893   0.94670   0.97377
 Alpha virt. eigenvalues --    0.98055   0.99755   1.02717   1.03399   1.04489
 Alpha virt. eigenvalues --    1.06112   1.07953   1.09324   1.11138   1.12034
 Alpha virt. eigenvalues --    1.15477   1.30386   1.36423   1.36740   1.40149
 Alpha virt. eigenvalues --    1.41663   1.58127   1.60192   1.88202   1.99792
 Alpha virt. eigenvalues --    2.15176   2.19050
          Condensed to atoms (all electrons):
               1          2          3          4          5          6
     1  C    5.245989   0.520897  -0.110086  -0.115963   0.390330  -0.037487
     2  C    0.520897   5.170362   0.398886  -0.110088  -0.035754   0.387791
     3  C   -0.110086   0.398886   5.170357   0.520904   0.004006  -0.032665
     4  C   -0.115963  -0.110088   0.520904   5.245976   0.002908   0.003614
     5  H    0.390330  -0.035754   0.004006   0.002908   0.497514  -0.002109
     6  H   -0.037487   0.387791  -0.032665   0.003614  -0.002109   0.502602
     7  H    0.003614  -0.032666   0.387792  -0.037487  -0.000052  -0.000914
     8  H    0.002908   0.004007  -0.035755   0.390330  -0.000033  -0.000052
     9  C    0.333165  -0.124028  -0.124028   0.333169  -0.032688   0.004490
    10  H   -0.036890   0.001428   0.001427  -0.036888   0.000131  -0.000114
    11  H   -0.032986   0.003083   0.003084  -0.032996  -0.000602  -0.000067
    12  C   -0.000840  -0.003482  -0.003945  -0.004928  -0.000914   0.000034
    13  H    0.000518   0.000944  -0.000142   0.000009  -0.000010   0.000116
    14  H    0.000573   0.000017   0.000009   0.000013   0.000151   0.000000
    15  C   -0.004925  -0.003940  -0.003481  -0.000842  -0.000034  -0.000029
    16  H    0.000012   0.000009   0.000018   0.000572  -0.000000  -0.000000
    17  H    0.000009  -0.000142   0.000942   0.000524  -0.000000  -0.000002
               7          8          9         10         11         12
     1  C    0.003614   0.002908   0.333165  -0.036890  -0.032986  -0.000840
     2  C   -0.032666   0.004007  -0.124028   0.001428   0.003083  -0.003482
     3  C    0.387792  -0.035755  -0.124028   0.001427   0.003084  -0.003945
     4  C   -0.037487   0.390330   0.333169  -0.036888  -0.032996  -0.004928
     5  H   -0.000052  -0.000033  -0.032688   0.000131  -0.000602  -0.000914
     6  H   -0.000914  -0.000052   0.004490  -0.000114  -0.000067   0.000034
     7  H    0.502605  -0.002109   0.004490  -0.000114  -0.000067  -0.000029
     8  H   -0.002109   0.497517  -0.032689   0.000131  -0.000602  -0.000034
     9  C    0.004490  -0.032689   5.404564   0.341782   0.356768  -0.008598
    10  H   -0.000114   0.000131   0.341782   0.524899  -0.023902   0.000493
    11  H   -0.000067  -0.000602   0.356768  -0.023902   0.509954   0.001097
    12  C   -0.000029  -0.000034  -0.008598   0.000493   0.001097   5.156773
    13  H   -0.000002  -0.000000   0.000118  -0.000001  -0.000002   0.382826
    14  H   -0.000000  -0.000000  -0.000154   0.000002   0.001099   0.380588
    15  C    0.000034  -0.000915  -0.008611   0.000493   0.001101   0.559462
    16  H    0.000000   0.000150  -0.000155   0.000002   0.001106  -0.048781
    17  H    0.000116  -0.000010   0.000118  -0.000001  -0.000002  -0.044837
              13         14         15         16         17
     1  C    0.000518   0.000573  -0.004925   0.000012   0.000009
     2  C    0.000944   0.000017  -0.003940   0.000009  -0.000142
     3  C   -0.000142   0.000009  -0.003481   0.000018   0.000942
     4  C    0.000009   0.000013  -0.000842   0.000572   0.000524
     5  H   -0.000010   0.000151  -0.000034  -0.000000  -0.000000
     6  H    0.000116   0.000000  -0.000029  -0.000000  -0.000002
     7  H   -0.000002  -0.000000   0.000034   0.000000   0.000116
     8  H   -0.000000  -0.000000  -0.000915   0.000150  -0.000010
     9  C    0.000118  -0.000154  -0.008611  -0.000155   0.000118
    10  H   -0.000001   0.000002   0.000493   0.000002  -0.000001
    11  H   -0.000002   0.001099   0.001101   0.001106  -0.000002
    12  C    0.382826   0.380588   0.559462  -0.048781  -0.044837
    13  H    0.512680  -0.032621  -0.044841   0.003354  -0.005230
    14  H   -0.032621   0.531009  -0.048776  -0.005431   0.003353
    15  C   -0.044841  -0.048776   5.156830   0.380584   0.382826
    16  H    0.003354  -0.005431   0.380584   0.531028  -0.032621
    17  H   -0.005230   0.003353   0.382826  -0.032621   0.512670
 Mulliken charges:
               1
     1  C   -0.158838
     2  C   -0.177322
     3  C   -0.177325
     4  C   -0.158827
     5  H    0.177157
     6  H    0.174791
     7  H    0.174788
     8  H    0.177156
     9  C   -0.447713
    10  H    0.227123
    11  H    0.213936
    12  C   -0.364882
    13  H    0.182284
    14  H    0.170167
    15  C   -0.364935
    16  H    0.170153
    17  H    0.182288
 Sum of Mulliken charges =  -0.00000
 Mulliken charges with hydrogens summed into heavy atoms:
               1
     1  C    0.018318
     2  C   -0.002531
     3  C   -0.002537
     4  C    0.018328
     9  C   -0.006655
    12  C   -0.012430
    15  C   -0.012494
 Electronic spatial extent (au):  <R**2>=            735.5009
 Charge=             -0.0000 electrons
 Dipole moment (field-independent basis, Debye):
    X=             -0.4280    Y=              0.0002    Z=              0.4686  Tot=              0.6346
 Quadrupole moment (field-independent basis, Debye-Ang):
   XX=            -48.6031   YY=            -40.2688   ZZ=            -39.6800
   XY=              0.0016   XZ=              1.3105   YZ=              0.0004
 Traceless Quadrupole moment (field-independent basis, Debye-Ang):
   XX=             -5.7525   YY=              2.5818   ZZ=              3.1707
   XY=              0.0016   XZ=              1.3105   YZ=              0.0004
 Octapole moment (field-independent basis, Debye-Ang**2):
  XXX=             -5.3051  YYY=             -0.0004  ZZZ=             -1.3914  XYY=              0.4784
  XXY=              0.0012  XXZ=              2.4682  XZZ=             -2.1998  YZZ=             -0.0009
  YYZ=              0.0077  XYZ=             -0.0019
 Hexadecapole moment (field-independent basis, Debye-Ang**3):
 XXXX=           -571.8185 YYYY=           -252.8460 ZZZZ=           -215.4063 XXXY=              0.0087
 XXXZ=              7.2508 YYYX=              0.0081 YYYZ=             -0.0049 ZZZX=              4.4806
 ZZZY=             -0.0022 XXYY=           -129.8480 XXZZ=           -113.3677 YYZZ=            -75.6671
 XXYZ=              0.0047 YYXZ=              2.8232 ZZXY=              0.0007
 N-N= 2.830081429883D+02 E-N=-1.193372113114D+03  KE= 2.687815761669D+02
 1\1\GINC-TACHAS\FOpt\RB3LYP\3-21G\C7H10\LEOS\20-Oct-2019\0\\# opt=modr
 edundant b3lyp/3-21g geom=connectivity\\Title Card Required\\0,1\C,-0.
 7593829019,1.1838311541,-0.3335450602\C,-1.1106105499,0.7311016074,0.8
 94549671\C,-1.1106286415,-0.7368147598,0.8897338763\C,-0.7592431565,-1
 .1814732792,-0.3412574878\H,-0.6881216568,2.2147408893,-0.6496310831\H
 ,-1.3235788535,1.3380279322,1.7637011475\H,-1.323570523,-1.3494201606,
 1.7548979588\H,-0.6878390509,-2.2102867722,-0.6640710041\C,-0.64234747
 49,0.0042731245,-1.2834189774\H,-1.5103722481,0.0064589099,-1.96413938
 96\H,0.2646371623,0.0062391213,-1.8891525337\C,1.9469432144,0.66654366
 39,0.164664673\H,1.8049238292,1.2351073834,1.075717342\H,2.1273089486,
 1.2471801694,-0.7348374297\C,1.947260204,-0.6673702565,0.1592801698\H,
 2.1277670469,-1.2406044931,-0.7449280915\H,1.8054616517,-1.243359404,1
 .0656863086\\Version=ES64L-G16RevB.01\State=1-A\HF=-271.1907262\RMSD=2
 .142e-09\RMSF=1.616e-03\Dipole=-0.1706456,0.0006606,-0.1822575\Quadrup
 ole=-4.2998535,1.9195289,2.3803246,0.0026555,-0.8922475,-0.0014775\PG=
 C01 [X(C7H10)]\\@


 10 WHATSOEVER THY HAND FINDETH TO DO, DO IT WITH THY  
 MIGHT. FOR THERE IS NO WORK, NOR DEVICE, NOR KNOWLEDGE, NOR  
 WISDOM, IN THE GRAVE, WHITHER THOU GOEST.                    
 11 I RETURNED AND SAW UNDER THE SUN, THAT THE RACE IS NOT TO 
 THE SWIFT, NOR THE BATTLE TO THE STRONG, NEITHER YET BREAD TO
 THE WISE, NOR YET RICHES TO MEN OF UNDERSTANDING, NOR YET    
 FAVOR TO MEN OF SKILL. BUT TIME AND CHANCE HAPPEN TO THEM ALL.
 12 FOR MAN ALSO KNOWETH NOT HIS TIME. AS THE FISHES   
 THAT ARE TAKEN IN AN EVIL NET, AND AS THE BIRDS THAT ARE     
 CAUGHT IN THE SNARE. SO ARE THE SONS OF MEN SNARED IN AN EVIL
 TIME, WHEN IT FALLETH SUDDENLY UPON THEM.
                                         ECCLESIASTES 9
 Job cpu time:       0 days  0 hours  3 minutes 11.0 seconds.
 Elapsed time:       0 days  0 hours  1 minutes 35.8 seconds.
 File lengths (MBytes):  RWF=     10 Int=      0 D2E=      0 Chk=      2 Scr=      1
 Normal termination of Gaussian 16 at Sun Oct 20 19:19:23 2019.
