 Entering Gaussian System, Link 0=g16
 Input=C2.9.com
 Output=C2.9.log
 Initial command:
 /opt/g16/l1.exe "/tmp/Gau-1710.inp" -scrdir="/tmp/"
 Entering Link 1 = /opt/g16/l1.exe PID=      1712.
  
 Copyright (c) 1988-2017, Gaussian, Inc.  All Rights Reserved.
  
 This is part of the Gaussian(R) 16 program.  It is based on
 the Gaussian(R) 09 system (copyright 2009, Gaussian, Inc.),
 the Gaussian(R) 03 system (copyright 2003, Gaussian, Inc.),
 the Gaussian(R) 98 system (copyright 1998, Gaussian, Inc.),
 the Gaussian(R) 94 system (copyright 1995, Gaussian, Inc.),
 the Gaussian 92(TM) system (copyright 1992, Gaussian, Inc.),
 the Gaussian 90(TM) system (copyright 1990, Gaussian, Inc.),
 the Gaussian 88(TM) system (copyright 1988, Gaussian, Inc.),
 the Gaussian 86(TM) system (copyright 1986, Carnegie Mellon
 University), and the Gaussian 82(TM) system (copyright 1983,
 Carnegie Mellon University). Gaussian is a federally registered
 trademark of Gaussian, Inc.
  
 This software contains proprietary and confidential information,
 including trade secrets, belonging to Gaussian, Inc.
  
 This software is provided under written license and may be
 used, copied, transmitted, or stored only in accord with that
 written license.
  
 The following legend is applicable only to US Government
 contracts under FAR:
  
                    RESTRICTED RIGHTS LEGEND
  
 Use, reproduction and disclosure by the US Government is
 subject to restrictions as set forth in subparagraphs (a)
 and (c) of the Commercial Computer Software - Restricted
 Rights clause in FAR 52.227-19.
  
 Gaussian, Inc.
 340 Quinnipiac St., Bldg. 40, Wallingford CT 06492
  
  
 ---------------------------------------------------------------
 Warning -- This program may not be used in any manner that
 competes with the business of Gaussian, Inc. or will provide
 assistance to any competitor of Gaussian, Inc.  The licensee
 of this program is prohibited from giving any competitor of
 Gaussian, Inc. access to this program.  By using this program,
 the user acknowledges that Gaussian, Inc. is engaged in the
 business of creating and licensing software in the field of
 computational chemistry and represents and warrants to the
 licensee that it is not a competitor of Gaussian, Inc. and that
 it will not use this program in any manner prohibited above.
 ---------------------------------------------------------------
  

 Cite this work as:
 Gaussian 16, Revision B.01,
 M. J. Frisch, G. W. Trucks, H. B. Schlegel, G. E. Scuseria, 
 M. A. Robb, J. R. Cheeseman, G. Scalmani, V. Barone, 
 G. A. Petersson, H. Nakatsuji, X. Li, M. Caricato, A. V. Marenich, 
 J. Bloino, B. G. Janesko, R. Gomperts, B. Mennucci, H. P. Hratchian, 
 J. V. Ortiz, A. F. Izmaylov, J. L. Sonnenberg, D. Williams-Young, 
 F. Ding, F. Lipparini, F. Egidi, J. Goings, B. Peng, A. Petrone, 
 T. Henderson, D. Ranasinghe, V. G. Zakrzewski, J. Gao, N. Rega, 
 G. Zheng, W. Liang, M. Hada, M. Ehara, K. Toyota, R. Fukuda, 
 J. Hasegawa, M. Ishida, T. Nakajima, Y. Honda, O. Kitao, H. Nakai, 
 T. Vreven, K. Throssell, J. A. Montgomery, Jr., J. E. Peralta, 
 F. Ogliaro, M. J. Bearpark, J. J. Heyd, E. N. Brothers, K. N. Kudin, 
 V. N. Staroverov, T. A. Keith, R. Kobayashi, J. Normand, 
 K. Raghavachari, A. P. Rendell, J. C. Burant, S. S. Iyengar, 
 J. Tomasi, M. Cossi, J. M. Millam, M. Klene, C. Adamo, R. Cammi, 
 J. W. Ochterski, R. L. Martin, K. Morokuma, O. Farkas, 
 J. B. Foresman, and D. J. Fox, Gaussian, Inc., Wallingford CT, 2016.
 
 ******************************************
 Gaussian 16:  ES64L-G16RevB.01 20-Dec-2017
                20-Oct-2019 
 ******************************************
 %nprocshared=2
 Will use up to    2 processors via shared memory.
 %mem=6GB
 %chk=C3.chk
 ------------------------------------------------
 # opt=modredundant b3lyp/3-21g geom=connectivity
 ------------------------------------------------
 1/18=120,19=15,26=3,38=1,57=2/1,3;
 2/9=110,12=2,17=6,18=5,40=1/2;
 3/5=5,11=2,25=1,30=1,71=1,74=-5/1,2,3;
 4//1;
 5/5=2,38=5/2;
 6/7=2,8=2,9=2,10=2,28=1/1;
 7//1,2,3,16;
 1/18=20,19=15,26=3/3(2);
 2/9=110/2;
 99//99;
 2/9=110/2;
 3/5=5,11=2,25=1,30=1,71=1,74=-5/1,2,3;
 4/5=5,16=3,69=1/1;
 5/5=2,38=5/2;
 7//1,2,3,16;
 1/18=20,19=15,26=3/3(-5);
 2/9=110/2;
 6/7=2,8=2,9=2,10=2,19=2,28=1/1;
 99/9=1/99;
 -------------------
 Title Card Required
 -------------------
 Symbolic Z-matrix:
 Charge =  0 Multiplicity = 1
 C                     1.91428  -1.31213   0.01839 
 C                     3.31603  -1.31213   0.01839 
 C                     3.74002   0.05867   0.01839 
 C                     2.58297   0.85012   0.01829 
 H                     1.21269  -2.14536   0.01849 
 H                     3.9604   -2.18483   0.01842 
 H                     4.76459   0.41516   0.01837 
 H                     2.47405   1.93389   0.01814 
 C                     1.47455   0.00838   0.01838 
 H                     0.8843    0.19084  -0.85523 
 H                     0.88443   0.19095   0.89207 
 C                     2.1885   -1.02665   2.89125 
 H                     2.99869  -1.72739   3.46377 
 H                     1.21011  -1.24598   3.46585 
 C                     2.59047   0.42779   2.88736 
 H                     1.83702   1.0986    3.48658 
 H                     3.6256    0.61719   3.4845 
 
 Add virtual bond connecting atoms C12        and H11        Dist= 5.06D+00.
 Add virtual bond connecting atoms C15        and H11        Dist= 4.98D+00.
 The following ModRedundant input section has been read:
 B       4      15 F                                                           
 B       1      12 F                                                           
 

 GradGradGradGradGradGradGradGradGradGradGradGradGradGradGradGradGradGrad
 Berny optimization.
 Initialization pass.
                           ----------------------------
                           !    Initial Parameters    !
                           ! (Angstroms and Degrees)  !
 --------------------------                            --------------------------
 ! Name  Definition              Value          Derivative Info.                !
 --------------------------------------------------------------------------------
 ! R1    R(1,2)                  1.4018         estimate D2E/DX2                !
 ! R2    R(1,5)                  1.0893         estimate D2E/DX2                !
 ! R3    R(1,9)                  1.3918         estimate D2E/DX2                !
 ! R4    R(1,12)                 2.9            Frozen                          !
 ! R5    R(2,3)                  1.4349         estimate D2E/DX2                !
 ! R6    R(2,6)                  1.0848         estimate D2E/DX2                !
 ! R7    R(3,4)                  1.4018         estimate D2E/DX2                !
 ! R8    R(3,7)                  1.0848         estimate D2E/DX2                !
 ! R9    R(4,8)                  1.0892         estimate D2E/DX2                !
 ! R10   R(4,9)                  1.3918         estimate D2E/DX2                !
 ! R11   R(4,15)                 2.9            Frozen                          !
 ! R12   R(9,10)                 1.07           estimate D2E/DX2                !
 ! R13   R(9,11)                 1.07           estimate D2E/DX2                !
 ! R14   R(11,12)                2.6795         estimate D2E/DX2                !
 ! R15   R(11,15)                2.6359         estimate D2E/DX2                !
 ! R16   R(12,13)                1.2146         estimate D2E/DX2                !
 ! R17   R(12,14)                1.1556         estimate D2E/DX2                !
 ! R18   R(12,15)                1.509          estimate D2E/DX2                !
 ! R19   R(15,16)                1.1733         estimate D2E/DX2                !
 ! R20   R(15,17)                1.2099         estimate D2E/DX2                !
 ! A1    A(2,1,5)              130.0976         estimate D2E/DX2                !
 ! A2    A(2,1,9)              108.4177         estimate D2E/DX2                !
 ! A3    A(5,1,9)              121.4847         estimate D2E/DX2                !
 ! A4    A(1,2,3)              107.1873         estimate D2E/DX2                !
 ! A5    A(1,2,6)              126.4408         estimate D2E/DX2                !
 ! A6    A(3,2,6)              126.372          estimate D2E/DX2                !
 ! A7    A(2,3,4)              107.1858         estimate D2E/DX2                !
 ! A8    A(2,3,7)              126.3724         estimate D2E/DX2                !
 ! A9    A(4,3,7)              126.4419         estimate D2E/DX2                !
 ! A10   A(3,4,8)              130.1121         estimate D2E/DX2                !
 ! A11   A(3,4,9)              108.4137         estimate D2E/DX2                !
 ! A12   A(8,4,9)              121.4742         estimate D2E/DX2                !
 ! A13   A(1,9,4)              108.7956         estimate D2E/DX2                !
 ! A14   A(1,9,10)             109.6383         estimate D2E/DX2                !
 ! A15   A(1,9,11)             109.6412         estimate D2E/DX2                !
 ! A16   A(4,9,10)             109.6414         estimate D2E/DX2                !
 ! A17   A(4,9,11)             109.6385         estimate D2E/DX2                !
 ! A18   A(10,9,11)            109.4712         estimate D2E/DX2                !
 ! A19   A(9,11,12)            105.2636         estimate D2E/DX2                !
 ! A20   A(9,11,15)            106.049          estimate D2E/DX2                !
 ! A21   A(11,12,13)           159.7995         estimate D2E/DX2                !
 ! A22   A(11,12,14)            92.5893         estimate D2E/DX2                !
 ! A23   A(13,12,14)           102.7602         estimate D2E/DX2                !
 ! A24   A(13,12,15)           112.3094         estimate D2E/DX2                !
 ! A25   A(14,12,15)           114.1883         estimate D2E/DX2                !
 ! A26   A(11,15,16)            91.2799         estimate D2E/DX2                !
 ! A27   A(11,15,17)           160.285          estimate D2E/DX2                !
 ! A28   A(12,15,16)           112.2515         estimate D2E/DX2                !
 ! A29   A(12,15,17)           112.1794         estimate D2E/DX2                !
 ! A30   A(16,15,17)           101.9954         estimate D2E/DX2                !
 ! D1    D(5,1,2,3)           -179.9933         estimate D2E/DX2                !
 ! D2    D(5,1,2,6)              0.0051         estimate D2E/DX2                !
 ! D3    D(9,1,2,3)              0.0004         estimate D2E/DX2                !
 ! D4    D(9,1,2,6)            179.9987         estimate D2E/DX2                !
 ! D5    D(2,1,9,4)              0.0039         estimate D2E/DX2                !
 ! D6    D(2,1,9,10)           119.9009         estimate D2E/DX2                !
 ! D7    D(2,1,9,11)          -119.8913         estimate D2E/DX2                !
 ! D8    D(5,1,9,4)            179.9982         estimate D2E/DX2                !
 ! D9    D(5,1,9,10)           -60.1048         estimate D2E/DX2                !
 ! D10   D(5,1,9,11)            60.103          estimate D2E/DX2                !
 ! D11   D(1,2,3,4)             -0.0044         estimate D2E/DX2                !
 ! D12   D(1,2,3,7)           -179.9984         estimate D2E/DX2                !
 ! D13   D(6,2,3,4)            179.9972         estimate D2E/DX2                !
 ! D14   D(6,2,3,7)              0.0033         estimate D2E/DX2                !
 ! D15   D(2,3,4,8)           -179.9922         estimate D2E/DX2                !
 ! D16   D(2,3,4,9)              0.0069         estimate D2E/DX2                !
 ! D17   D(7,3,4,8)              0.0017         estimate D2E/DX2                !
 ! D18   D(7,3,4,9)           -179.9992         estimate D2E/DX2                !
 ! D19   D(3,4,9,1)             -0.0067         estimate D2E/DX2                !
 ! D20   D(3,4,9,10)          -119.9018         estimate D2E/DX2                !
 ! D21   D(3,4,9,11)           119.8901         estimate D2E/DX2                !
 ! D22   D(8,4,9,1)            179.9924         estimate D2E/DX2                !
 ! D23   D(8,4,9,10)            60.0973         estimate D2E/DX2                !
 ! D24   D(8,4,9,11)           -60.1107         estimate D2E/DX2                !
 ! D25   D(1,9,11,12)           42.1718         estimate D2E/DX2                !
 ! D26   D(1,9,11,15)           76.4429         estimate D2E/DX2                !
 ! D27   D(4,9,11,12)          -77.207          estimate D2E/DX2                !
 ! D28   D(4,9,11,15)          -42.9359         estimate D2E/DX2                !
 ! D29   D(10,9,11,12)         162.4814         estimate D2E/DX2                !
 ! D30   D(10,9,11,15)        -163.2475         estimate D2E/DX2                !
 ! D31   D(9,11,12,13)          -9.5482         estimate D2E/DX2                !
 ! D32   D(9,11,12,14)        -149.2954         estimate D2E/DX2                !
 ! D33   D(9,11,15,16)         153.8605         estimate D2E/DX2                !
 ! D34   D(9,11,15,17)          21.1269         estimate D2E/DX2                !
 ! D35   D(13,12,15,16)       -115.8769         estimate D2E/DX2                !
 ! D36   D(13,12,15,17)         -1.7164         estimate D2E/DX2                !
 ! D37   D(14,12,15,16)          0.612          estimate D2E/DX2                !
 ! D38   D(14,12,15,17)        114.7725         estimate D2E/DX2                !
 --------------------------------------------------------------------------------
 Trust Radius=3.00D-01 FncErr=1.00D-07 GrdErr=1.00D-06 EigMax=2.50D+02 EigMin=1.00D-04
 Number of steps in this run=     98 maximum allowed number of steps=    102.
 GradGradGradGradGradGradGradGradGradGradGradGradGradGradGradGradGradGrad

                          Input orientation:                          
 ---------------------------------------------------------------------
 Center     Atomic      Atomic             Coordinates (Angstroms)
 Number     Number       Type             X           Y           Z
 ---------------------------------------------------------------------
      1          6           0        1.914276   -1.312128    0.018394
      2          6           0        3.316026   -1.312128    0.018394
      3          6           0        3.740024    0.058668    0.018394
      4          6           0        2.582967    0.850121    0.018290
      5          1           0        1.212688   -2.145361    0.018492
      6          1           0        3.960399   -2.184834    0.018419
      7          1           0        4.764587    0.415160    0.018369
      8          1           0        2.474045    1.933893    0.018143
      9          6           0        1.474549    0.008380    0.018385
     10          1           0        0.884296    0.190842   -0.855234
     11          1           0        0.884427    0.190951    0.892069
     12          6           0        2.188500   -1.026654    2.891250
     13          1           0        2.998686   -1.727388    3.463766
     14          1           0        1.210108   -1.245980    3.465854
     15          6           0        2.590470    0.427791    2.887363
     16          1           0        1.837021    1.098595    3.486585
     17          1           0        3.625600    0.617187    3.484497
 ---------------------------------------------------------------------
                    Distance matrix (angstroms):
                    1          2          3          4          5
     1  C    0.000000
     2  C    1.401750   0.000000
     3  C    2.283076   1.434871   0.000000
     4  C    2.263287   2.283133   1.401848   0.000000
     5  H    1.089267   2.262368   3.353382   3.294021   0.000000
     6  H    2.224463   1.084819   2.254300   3.332907   2.747995
     7  H    3.332836   2.254297   1.084811   2.224558   4.378613
     8  H    3.293933   3.353444   2.262559   1.089232   4.269817
     9  C    1.391798   2.266005   2.266033   1.391804   2.169602
    10  H    2.020644   2.989223   2.989294   2.020687   2.515767
    11  H    2.020679   2.989185   2.989187   2.020652   2.515799
    12  C    2.900000   3.099373   3.440706   3.454242   3.233645
    13  H    3.635791   3.484786   3.950971   4.322925   3.903128
    14  H    3.519263   4.040328   4.470745   4.261934   3.562751
    15  C    3.422797   3.432890   3.112669   2.900000   4.092653
    16  H    4.224441   4.475197   4.090381   3.556296   4.789646
    17  H    4.320273   3.978940   3.512678   3.627111   5.046485
                    6          7          8          9         10
     6  H    0.000000
     7  H    2.721523   0.000000
     8  H    4.378717   2.748296   0.000000
     9  C    3.315062   3.315090   2.169468   0.000000
    10  H    3.983656   3.983736   2.515614   1.070000   0.000000
    11  H    3.983619   3.983624   2.515647   1.070000   1.747303
    12  C    3.568497   4.119284   4.135350   3.135981   4.149625
    13  H    3.606184   4.424893   5.054953   4.148076   5.177259
    14  H    4.508920   5.222917   4.857555   3.678096   4.565349
    15  C    4.115016   3.599732   3.242580   3.106802   4.119976
    16  H    5.226645   4.589798   3.624032   3.653542   4.536859
    17  H    4.469576   3.654060   3.882706   4.124512   5.150706
                   11         12         13         14         15
    11  H    0.000000
    12  C    2.679533   0.000000
    13  H    3.842362   1.214580   0.000000
    14  H    2.965672   1.155649   1.852234   0.000000
    15  C    2.635882   1.508974   2.267967   2.245342   0.000000
    16  H    2.909083   2.234870   3.055514   2.427032   1.173342
    17  H    3.796892   2.262611   2.427032   3.050630   1.209932
                   16         17
    16  H    0.000000
    17  H    1.852234   0.000000
 Stoichiometry    C7H10
 Framework group  C1[X(C7H10)]
 Deg. of freedom    45
 Full point group                 C1      NOp   1
 Largest Abelian subgroup         C1      NOp   1
 Largest concise Abelian subgroup C1      NOp   1
                         Standard orientation:                         
 ---------------------------------------------------------------------
 Center     Atomic      Atomic             Coordinates (Angstroms)
 Number     Number       Type             X           Y           Z
 ---------------------------------------------------------------------
      1          6           0       -0.884966    1.120681   -0.404995
      2          6           0       -1.006442    0.763326    0.944985
      3          6           0       -1.026546   -0.670191    1.003966
      4          6           0       -0.916771   -1.140474   -0.312074
      5          1           0       -0.834183    2.105194   -0.868307
      6          1           0       -1.072853    1.442875    1.787977
      7          1           0       -1.111032   -1.276081    1.899832
      8          1           0       -0.894322   -2.160607   -0.693194
      9          6           0       -0.830838   -0.044020   -1.165023
     10          1           0       -1.647739   -0.060886   -1.855884
     11          1           0        0.092851   -0.079188   -1.703968
     12          6           0        1.956571    0.744882    0.035960
     13          1           0        2.448174    1.209928    1.044555
     14          1           0        2.611096    1.200402   -0.800476
     15          6           0        1.935520   -0.763859    0.052070
     16          1           0        2.605880   -1.226611   -0.792447
     17          1           0        2.442957   -1.217085    1.052583
 ---------------------------------------------------------------------
 Rotational constants (GHZ):           3.7198168           2.1420519           2.0112578
 Standard basis: 3-21G (6D, 7F)
 There are    83 symmetry adapted cartesian basis functions of A   symmetry.
 There are    83 symmetry adapted basis functions of A   symmetry.
    83 basis functions,   135 primitive gaussians,    83 cartesian basis functions
    26 alpha electrons       26 beta electrons
       nuclear repulsion energy       279.6129656869 Hartrees.
 NAtoms=   17 NActive=   17 NUniq=   17 SFac= 1.00D+00 NAtFMM=   60 NAOKFM=F Big=F
 Integral buffers will be    131072 words long.
 Raffenetti 2 integral format.
 Two-electron integral symmetry is turned on.
 One-electron integrals computed using PRISM.
 NBasis=    83 RedAO= T EigKep=  4.13D-03  NBF=    83
 NBsUse=    83 1.00D-06 EigRej= -1.00D+00 NBFU=    83
 ExpMin= 1.83D-01 ExpMax= 1.72D+02 ExpMxC= 1.72D+02 IAcc=3 IRadAn=         5 AccDes= 0.00D+00
 Harris functional with IExCor=  402 and IRadAn=       5 diagonalized for initial guess.
 HarFok:  IExCor=  402 AccDes= 0.00D+00 IRadAn=         5 IDoV= 1 UseB2=F ITyADJ=14
 ICtDFT=  3500011 ScaDFX=  1.000000  1.000000  1.000000  1.000000
 FoFCou: FMM=F IPFlag=           0 FMFlag=      100000 FMFlg1=           0
         NFxFlg=           0 DoJE=T BraDBF=F KetDBF=T FulRan=T
         wScrn=  0.000000 ICntrl=       500 IOpCl=  0 I1Cent=   200000004 NGrid=           0
         NMat0=    1 NMatS0=      1 NMatT0=    0 NMatD0=    1 NMtDS0=    0 NMtDT0=    0
 Petite list used in FoFCou.
 Keep R1 ints in memory in canonical form, NReq=7891700.
 Requested convergence on RMS density matrix=1.00D-08 within 128 cycles.
 Requested convergence on MAX density matrix=1.00D-06.
 Requested convergence on             energy=1.00D-06.
 No special actions if energy rises.
 Integral accuracy reduced to 1.0D-05 until final iterations.
 EnCoef did     3 forward-backward iterations
 Initial convergence to 1.0D-05 achieved.  Increase integral accuracy.
 SCF Done:  E(RB3LYP) =  -271.065236651     A.U. after   15 cycles
            NFock= 15  Conv=0.33D-08     -V/T= 2.0099

 **********************************************************************

            Population analysis using the SCF Density.

 **********************************************************************

 Orbital symmetries:
       Occupied  (A) (A) (A) (A) (A) (A) (A) (A) (A) (A) (A) (A)
                 (A) (A) (A) (A) (A) (A) (A) (A) (A) (A) (A) (A)
                 (A) (A)
       Virtual   (A) (A) (A) (A) (A) (A) (A) (A) (A) (A) (A) (A)
                 (A) (A) (A) (A) (A) (A) (A) (A) (A) (A) (A) (A)
                 (A) (A) (A) (A) (A) (A) (A) (A) (A) (A) (A) (A)
                 (A) (A) (A) (A) (A) (A) (A) (A) (A) (A) (A) (A)
                 (A) (A) (A) (A) (A) (A) (A) (A) (A)
 The electronic state is 1-A.
 Alpha  occ. eigenvalues --  -10.13699 -10.13549 -10.12245 -10.12150 -10.12064
 Alpha  occ. eigenvalues --  -10.12010 -10.10219  -0.88304  -0.72141  -0.70593
 Alpha  occ. eigenvalues --   -0.69816  -0.54377  -0.54278  -0.54047  -0.51976
 Alpha  occ. eigenvalues --   -0.46461  -0.40236  -0.39250  -0.37833  -0.37499
 Alpha  occ. eigenvalues --   -0.37231  -0.36434  -0.30375  -0.29303  -0.21703
 Alpha  occ. eigenvalues --   -0.21105
 Alpha virt. eigenvalues --   -0.04388  -0.01163   0.08671   0.10816   0.13041
 Alpha virt. eigenvalues --    0.13657   0.18035   0.18316   0.19016   0.19806
 Alpha virt. eigenvalues --    0.20018   0.21894   0.24356   0.25940   0.26215
 Alpha virt. eigenvalues --    0.30097   0.38857   0.42285   0.47535   0.67394
 Alpha virt. eigenvalues --    0.67955   0.70557   0.70770   0.72538   0.75828
 Alpha virt. eigenvalues --    0.77427   0.77802   0.79539   0.80969   0.84843
 Alpha virt. eigenvalues --    0.85856   0.88039   0.90792   0.94426   0.96092
 Alpha virt. eigenvalues --    0.96804   0.98773   0.99228   1.02297   1.03323
 Alpha virt. eigenvalues --    1.03574   1.05254   1.05682   1.07374   1.08238
 Alpha virt. eigenvalues --    1.10887   1.18021   1.31935   1.33716   1.39066
 Alpha virt. eigenvalues --    1.40167   1.58894   1.71362   1.82477   2.00794
 Alpha virt. eigenvalues --    2.09769   2.25193
          Condensed to atoms (all electrons):
               1          2          3          4          5          6
     1  C    5.266653   0.524931  -0.117981  -0.141100   0.393045  -0.033393
     2  C    0.524931   5.159124   0.414968  -0.117588  -0.023943   0.387419
     3  C   -0.117981   0.414968   5.159314   0.525477   0.003236  -0.032608
     4  C   -0.141100  -0.117588   0.525477   5.263818   0.004780   0.003728
     5  H    0.393045  -0.023943   0.003236   0.004780   0.486732  -0.001447
     6  H   -0.033393   0.387419  -0.032608   0.003728  -0.001447   0.494138
     7  H    0.003733  -0.032675   0.387487  -0.033370  -0.000046  -0.001005
     8  H    0.004779   0.003236  -0.023919   0.393041  -0.000061  -0.000046
     9  C    0.305429  -0.143126  -0.142844   0.305550  -0.045180   0.005098
    10  H   -0.045355   0.003269   0.003284  -0.045562  -0.001128  -0.000113
    11  H   -0.042790   0.002337   0.002364  -0.042734  -0.001242  -0.000107
    12  C    0.021303   0.001441  -0.005393  -0.006419  -0.000242   0.000039
    13  H   -0.000719  -0.000565   0.000067   0.000101  -0.000006   0.000033
    14  H   -0.000602  -0.000072   0.000078   0.000171   0.000044   0.000001
    15  C   -0.006975  -0.005697   0.001323   0.021270  -0.000041  -0.000006
    16  H    0.000191   0.000083  -0.000045  -0.000523   0.000000   0.000000
    17  H    0.000117   0.000077  -0.000600  -0.000789   0.000000  -0.000001
               7          8          9         10         11         12
     1  C    0.003733   0.004779   0.305429  -0.045355  -0.042790   0.021303
     2  C   -0.032675   0.003236  -0.143126   0.003269   0.002337   0.001441
     3  C    0.387487  -0.023919  -0.142844   0.003284   0.002364  -0.005393
     4  C   -0.033370   0.393041   0.305550  -0.045562  -0.042734  -0.006419
     5  H   -0.000046  -0.000061  -0.045180  -0.001128  -0.001242  -0.000242
     6  H   -0.001005  -0.000046   0.005098  -0.000113  -0.000107   0.000039
     7  H    0.494330  -0.001447   0.005100  -0.000113  -0.000107  -0.000004
     8  H   -0.001447   0.486378  -0.045123  -0.001129  -0.001260  -0.000037
     9  C    0.005100  -0.045123   5.605195   0.343861   0.337232  -0.007443
    10  H   -0.000113  -0.001129   0.343861   0.509774  -0.013972   0.000360
    11  H   -0.000107  -0.001260   0.337232  -0.013972   0.477386   0.005762
    12  C   -0.000004  -0.000037  -0.007443   0.000360   0.005762   5.339341
    13  H   -0.000001   0.000000   0.000077  -0.000001   0.000050   0.352538
    14  H    0.000000   0.000000  -0.000204   0.000005   0.000052   0.348494
    15  C    0.000037  -0.000261  -0.008525   0.000396   0.007183   0.409930
    16  H    0.000001   0.000035  -0.000296   0.000005   0.000116  -0.044515
    17  H    0.000025  -0.000005   0.000093  -0.000001   0.000040  -0.040202
              13         14         15         16         17
     1  C   -0.000719  -0.000602  -0.006975   0.000191   0.000117
     2  C   -0.000565  -0.000072  -0.005697   0.000083   0.000077
     3  C    0.000067   0.000078   0.001323  -0.000045  -0.000600
     4  C    0.000101   0.000171   0.021270  -0.000523  -0.000789
     5  H   -0.000006   0.000044  -0.000041   0.000000   0.000000
     6  H    0.000033   0.000001  -0.000006   0.000000  -0.000001
     7  H   -0.000001   0.000000   0.000037   0.000001   0.000025
     8  H    0.000000   0.000000  -0.000261   0.000035  -0.000005
     9  C    0.000077  -0.000204  -0.008525  -0.000296   0.000093
    10  H   -0.000001   0.000005   0.000396   0.000005  -0.000001
    11  H    0.000050   0.000052   0.007183   0.000116   0.000040
    12  C    0.352538   0.348494   0.409930  -0.044515  -0.040202
    13  H    0.585449  -0.046400  -0.040169   0.004068  -0.005898
    14  H   -0.046400   0.574098  -0.043008  -0.004563   0.003966
    15  C   -0.040169  -0.043008   5.344061   0.345996   0.352903
    16  H    0.004068  -0.004563   0.345996   0.586278  -0.047039
    17  H   -0.005898   0.003966   0.352903  -0.047039   0.583785
 Mulliken charges:
               1
     1  C   -0.131266
     2  C   -0.173219
     3  C   -0.174207
     4  C   -0.129848
     5  H    0.185498
     6  H    0.178270
     7  H    0.178056
     8  H    0.185818
     9  C   -0.514894
    10  H    0.246421
    11  H    0.269689
    12  C   -0.374953
    13  H    0.151376
    14  H    0.167939
    15  C   -0.378414
    16  H    0.160207
    17  H    0.153527
 Sum of Mulliken charges =  -0.00000
 Mulliken charges with hydrogens summed into heavy atoms:
               1
     1  C    0.054232
     2  C    0.005051
     3  C    0.003849
     4  C    0.055969
     9  C    0.001215
    12  C   -0.055637
    15  C   -0.064679
 Electronic spatial extent (au):  <R**2>=            772.1960
 Charge=             -0.0000 electrons
 Dipole moment (field-independent basis, Debye):
    X=             -0.0151    Y=              0.0318    Z=             -0.6609  Tot=              0.6618
 Quadrupole moment (field-independent basis, Debye-Ang):
   XX=            -43.7337   YY=            -42.5209   ZZ=            -39.8316
   XY=              0.1790   XZ=              0.4356   YZ=              0.0359
 Traceless Quadrupole moment (field-independent basis, Debye-Ang):
   XX=             -1.7050   YY=             -0.4921   ZZ=              2.1971
   XY=              0.1790   XZ=              0.4356   YZ=              0.0359
 Octapole moment (field-independent basis, Debye-Ang**2):
  XXX=             12.1761  YYY=              0.1073  ZZZ=              1.4222  XYY=             -2.5859
  XXY=             -0.0591  XXZ=             -2.3495  XZZ=             -3.0882  YZZ=              0.2161
  YYZ=             -0.8470  XYZ=             -0.1664
 Hexadecapole moment (field-independent basis, Debye-Ang**3):
 XXXX=           -571.2453 YYYY=           -261.2869 ZZZZ=           -214.7394 XXXY=              0.9420
 XXXZ=              6.2051 YYYX=              0.7733 YYYZ=              0.2972 ZZZX=             -1.2526
 ZZZY=             -0.4799 XXYY=           -136.5187 XXZZ=           -121.6364 YYZZ=            -74.2951
 XXYZ=             -0.0247 YYXZ=              0.1069 ZZXY=              0.1374
 N-N= 2.796129656869D+02 E-N=-1.186098026469D+03  KE= 2.683963749537D+02
 Calling FoFJK, ICntrl=      2127 FMM=F ISym2X=0 I1Cent= 0 IOpClX= 0 NMat=1 NMatS=1 NMatT=0.
 ***** Axes restored to original set *****
 -------------------------------------------------------------------
 Center     Atomic                   Forces (Hartrees/Bohr)
 Number     Number              X              Y              Z
 -------------------------------------------------------------------
      1        6           0.048378457   -0.079582154    0.010006056
      2        6          -0.025997055   -0.016089102   -0.003920965
      3        6          -0.012545339    0.028155848   -0.004151925
      4        6           0.085151009    0.038082240    0.010369584
      5        1           0.010264531   -0.000094925   -0.000697737
      6        1          -0.001773248    0.003435174    0.000389767
      7        1          -0.003393347   -0.001842885    0.000407404
      8        1           0.008528413   -0.005719870   -0.000583645
      9        6          -0.069441195    0.021086100   -0.005478114
     10        1          -0.020258152    0.006176957   -0.016347250
     11        1          -0.017890090    0.005624703    0.013074067
     12        6           0.037233642    0.055933601    0.085051423
     13        1          -0.027286092    0.024404067   -0.048511054
     14        1           0.014939034    0.007072977   -0.039121698
     15        6          -0.006946812   -0.064135665    0.091559882
     16        1           0.014097889   -0.015271154   -0.042744823
     17        1          -0.033061645   -0.007235912   -0.049300971
 -------------------------------------------------------------------
 Cartesian Forces:  Max     0.091559882 RMS     0.034839271

 GradGradGradGradGradGradGradGradGradGradGradGradGradGradGradGradGradGrad
 Berny optimization.
 FormGI is forming the generalized inverse of G from B-inverse, IUseBI=4.
 Internal  Forces:  Max     0.079227169 RMS     0.020353208
 Search for a local minimum.
 Step number   1 out of a maximum of   98
 All quantities printed in internal units (Hartrees-Bohrs-Radians)
 Mixed Optimization -- RFO/linear search
 Second derivative matrix not updated -- first step.
 ITU=  0
     Eigenvalues ---    0.00677   0.01093   0.01792   0.01910   0.01933
     Eigenvalues ---    0.01944   0.02130   0.02138   0.02178   0.02612
     Eigenvalues ---    0.02782   0.05115   0.05663   0.06060   0.06571
     Eigenvalues ---    0.07114   0.08604   0.09451   0.10640   0.15568
     Eigenvalues ---    0.16000   0.16000   0.16000   0.16000   0.16000
     Eigenvalues ---    0.19013   0.22000   0.23631   0.23954   0.26718
     Eigenvalues ---    0.28208   0.28919   0.34897   0.34902   0.35418
     Eigenvalues ---    0.35419   0.35648   0.36865   0.37230   0.40319
     Eigenvalues ---    0.44012   0.45660   0.465841000.000001000.00000
     Eigenvalues --- 1000.000001000.000001000.000001000.000001000.00000
     Eigenvalues --- 1000.000001000.000001000.000001000.000001000.00000
     Eigenvalues --- 1000.000001000.000001000.000001000.000001000.00000
     Eigenvalues --- 1000.000001000.000001000.000001000.000001000.00000
     Eigenvalues --- 1000.000001000.000001000.000001000.000001000.00000
     Eigenvalues --- 1000.000001000.000001000.000001000.000001000.00000
     Eigenvalues --- 1000.000001000.000001000.000001000.000001000.00000
     Eigenvalues --- 1000.000001000.000001000.000001000.000001000.00000
     Eigenvalues --- 1000.000001000.000001000.00000
 RFO step:  Lambda=-9.80590437D-02 EMin= 6.77409236D-03
 Linear search not attempted -- first point.
 Maximum step size (   0.300) exceeded in Quadratic search.
    -- Step size scaled by   0.620
 Iteration  1 RMS(Cart)=  0.04316002 RMS(Int)=  0.00154127
 Iteration  2 RMS(Cart)=  0.00139584 RMS(Int)=  0.00060453
 Iteration  3 RMS(Cart)=  0.00000378 RMS(Int)=  0.00060452
 Iteration  4 RMS(Cart)=  0.00000001 RMS(Int)=  0.00060452
 Iteration  1 RMS(Cart)=  0.00003072 RMS(Int)=  0.00000563
 Iteration  2 RMS(Cart)=  0.00000317 RMS(Int)=  0.00000591
 Iteration  3 RMS(Cart)=  0.00000044 RMS(Int)=  0.00000599
 Variable       Old X    -DE/DX   Delta X   Delta X   Delta X     New X
                                 (Linear)    (Quad)   (Total)
    R1        2.64892  -0.02123   0.00000  -0.02623  -0.02627   2.62265
    R2        2.05842  -0.00654   0.00000  -0.00907  -0.00907   2.04934
    R3        2.63012   0.07923   0.00000   0.09294   0.09303   2.72315
    R4        5.48021   0.00172   0.00000   0.00000   0.00000   5.48021
    R5        2.71151   0.02216   0.00000   0.01863   0.01850   2.73001
    R6        2.05001  -0.00382   0.00000  -0.00523  -0.00523   2.04478
    R7        2.64911  -0.02146   0.00000  -0.02652  -0.02656   2.62255
    R8        2.05000  -0.00381   0.00000  -0.00523  -0.00523   2.04477
    R9        2.05835  -0.00654   0.00000  -0.00908  -0.00908   2.04927
   R10        2.63013   0.07917   0.00000   0.09292   0.09302   2.72315
   R11        5.48021   0.00254   0.00000   0.00000  -0.00000   5.48021
   R12        2.02201   0.02558   0.00000   0.03373   0.03373   2.05573
   R13        2.02201   0.01638   0.00000   0.02542   0.02525   2.04725
   R14        5.06358  -0.00677   0.00000  -0.02111  -0.02137   5.04221
   R15        4.98109  -0.00640   0.00000  -0.01999  -0.01974   4.96135
   R16        2.29522  -0.05515   0.00000  -0.10230  -0.10230   2.19292
   R17        2.18386  -0.03344   0.00000  -0.05457  -0.05457   2.12929
   R18        2.85155  -0.07831   0.00000  -0.12513  -0.12540   2.72615
   R19        2.21729  -0.03961   0.00000  -0.06727  -0.06727   2.15002
   R20        2.28644  -0.05375   0.00000  -0.09875  -0.09875   2.18768
    A1        2.27063  -0.00588   0.00000  -0.01989  -0.01992   2.25071
    A2        1.89225  -0.00452   0.00000   0.00064   0.00066   1.89291
    A3        2.12031   0.01041   0.00000   0.01925   0.01921   2.13952
    A4        1.87077   0.01636   0.00000   0.01797   0.01778   1.88855
    A5        2.20681  -0.00755   0.00000  -0.00748  -0.00738   2.19942
    A6        2.20561  -0.00881   0.00000  -0.01050  -0.01041   2.19520
    A7        1.87074   0.01636   0.00000   0.01794   0.01774   1.88849
    A8        2.20561  -0.00882   0.00000  -0.01051  -0.01042   2.19519
    A9        2.20683  -0.00754   0.00000  -0.00743  -0.00733   2.19950
   A10        2.27088  -0.00594   0.00000  -0.01998  -0.02001   2.25088
   A11        1.89218  -0.00441   0.00000   0.00080   0.00081   1.89299
   A12        2.12012   0.01035   0.00000   0.01918   0.01914   2.13927
   A13        1.89884  -0.02379   0.00000  -0.03736  -0.03714   1.86170
   A14        1.91355   0.00844   0.00000   0.01758   0.01771   1.93126
   A15        1.91360   0.00810   0.00000   0.01171   0.01158   1.92518
   A16        1.91360   0.00906   0.00000   0.01929   0.01933   1.93293
   A17        1.91355   0.00682   0.00000   0.00815   0.00822   1.92178
   A18        1.91063  -0.00862   0.00000  -0.01931  -0.01934   1.89129
   A19        1.83720  -0.00878   0.00000  -0.01040  -0.01070   1.82649
   A20        1.85090  -0.00818   0.00000  -0.00742  -0.00795   1.84295
   A21        2.78903  -0.01701   0.00000  -0.05278  -0.05316   2.73587
   A22        1.61599  -0.00881   0.00000  -0.03725  -0.03835   1.57763
   A23        1.79350   0.01750   0.00000   0.05573   0.05264   1.84614
   A24        1.96017  -0.00276   0.00000   0.00970   0.01051   1.97068
   A25        1.99296   0.00991   0.00000   0.03845   0.03762   2.03058
   A26        1.59313  -0.00951   0.00000  -0.03910  -0.04014   1.55300
   A27        2.79750  -0.01848   0.00000  -0.05668  -0.05682   2.74068
   A28        1.95916   0.01304   0.00000   0.04623   0.04537   2.00453
   A29        1.95790  -0.00239   0.00000   0.01015   0.01036   1.96825
   A30        1.78016   0.01768   0.00000   0.05722   0.05420   1.83435
    D1       -3.14148  -0.00026   0.00000  -0.00125  -0.00090   3.14081
    D2        0.00009  -0.00097   0.00000  -0.00516  -0.00502  -0.00493
    D3        0.00001   0.00174   0.00000   0.00952   0.00977   0.00978
    D4        3.14157   0.00104   0.00000   0.00560   0.00566  -3.13596
    D5        0.00007  -0.00282   0.00000  -0.01560  -0.01553  -0.01546
    D6        2.09267  -0.00119   0.00000  -0.00426  -0.00440   2.08826
    D7       -2.09250  -0.00153   0.00000  -0.00984  -0.00982  -2.10232
    D8        3.14156  -0.00102   0.00000  -0.00594  -0.00568   3.13588
    D9       -1.04903   0.00061   0.00000   0.00539   0.00545  -1.04358
   D10        1.04900   0.00027   0.00000  -0.00018   0.00003   1.04902
   D11       -0.00008  -0.00004   0.00000  -0.00003  -0.00002  -0.00010
   D12       -3.14156  -0.00066   0.00000  -0.00384  -0.00404   3.13758
   D13        3.14154   0.00066   0.00000   0.00388   0.00408  -3.13756
   D14        0.00006   0.00005   0.00000   0.00007   0.00007   0.00012
   D15       -3.14146   0.00050   0.00000   0.00174   0.00137  -3.14008
   D16        0.00012  -0.00167   0.00000  -0.00948  -0.00974  -0.00962
   D17        0.00003   0.00112   0.00000   0.00555   0.00540   0.00543
   D18       -3.14158  -0.00106   0.00000  -0.00566  -0.00571   3.13589
   D19       -0.00012   0.00279   0.00000   0.01558   0.01552   0.01540
   D20       -2.09268   0.00155   0.00000   0.00531   0.00543  -2.08725
   D21        2.09248   0.00230   0.00000   0.01203   0.01199   2.10446
   D22        3.14146   0.00084   0.00000   0.00552   0.00527  -3.13646
   D23        1.04890  -0.00040   0.00000  -0.00475  -0.00482   1.04407
   D24       -1.04913   0.00034   0.00000   0.00197   0.00173  -1.04740
   D25        0.73604  -0.00089   0.00000  -0.00200  -0.00190   0.73413
   D26        1.33418  -0.01852   0.00000  -0.02818  -0.02817   1.30601
   D27       -1.34752   0.01913   0.00000   0.03163   0.03156  -1.31596
   D28       -0.74937   0.00151   0.00000   0.00545   0.00529  -0.74408
   D29        2.83584   0.00913   0.00000   0.01486   0.01486   2.85069
   D30       -2.84921  -0.00849   0.00000  -0.01131  -0.01140  -2.86061
   D31       -0.16665  -0.00739   0.00000  -0.03621  -0.03510  -0.20175
   D32       -2.60570   0.00935   0.00000   0.05170   0.05102  -2.55467
   D33        2.68537  -0.00868   0.00000  -0.04532  -0.04474   2.64064
   D34        0.36873   0.00602   0.00000   0.02596   0.02513   0.39386
   D35       -2.02243  -0.02788   0.00000  -0.10521  -0.10670  -2.12914
   D36       -0.02996   0.00094   0.00000   0.00191   0.00193  -0.02803
   D37        0.01068  -0.00046   0.00000  -0.00016  -0.00017   0.01052
   D38        2.00316   0.02836   0.00000   0.10696   0.10846   2.11162
         Item               Value     Threshold  Converged?
 Maximum Force            0.079216     0.000450     NO 
 RMS     Force            0.020586     0.000300     NO 
 Maximum Displacement     0.136963     0.001800     NO 
 RMS     Displacement     0.043221     0.001200     NO 
 Predicted change in Energy=-4.796875D-02
 GradGradGradGradGradGradGradGradGradGradGradGradGradGradGradGradGradGrad

                          Input orientation:                          
 ---------------------------------------------------------------------
 Center     Atomic      Atomic             Coordinates (Angstroms)
 Number     Number       Type             X           Y           Z
 ---------------------------------------------------------------------
      1          6           0        1.928421   -1.343201    0.041460
      2          6           0        3.315907   -1.319518    0.020493
      3          6           0        3.743875    0.060292    0.023274
      4          6           0        2.613289    0.864800    0.045775
      5          1           0        1.261061   -2.198001    0.045200
      6          1           0        3.966924   -2.183728    0.008386
      7          1           0        4.769685    0.404446    0.013494
      8          1           0        2.546523    1.947148    0.052773
      9          6           0        1.448971    0.015727    0.044545
     10          1           0        0.833186    0.207328   -0.831533
     11          1           0        0.851500    0.201579    0.928941
     12          6           0        2.187066   -0.989388    2.908151
     13          1           0        2.988628   -1.674797    3.392237
     14          1           0        1.216281   -1.244385    3.420179
     15          6           0        2.564474    0.402986    2.908351
     16          1           0        1.836120    1.095733    3.441321
     17          1           0        3.586759    0.590096    3.418380
 ---------------------------------------------------------------------
                    Distance matrix (angstroms):
                    1          2          3          4          5
     1  C    0.000000
     2  C    1.387846   0.000000
     3  C    2.294776   1.444659   0.000000
     4  C    2.311781   2.294680   1.387791   0.000000
     5  H    1.084466   2.234890   3.356297   3.348025   0.000000
     6  H    2.205238   1.082049   2.255128   3.335754   2.706151
     7  H    3.335840   2.255121   1.082046   2.205224   4.368544
     8  H    3.347920   3.356203   2.234893   1.084427   4.339899
     9  C    1.441029   2.295410   2.295436   1.441029   2.221688
    10  H    2.089449   3.036628   3.037173   2.090623   2.595640
    11  H    2.081761   3.035180   3.034144   2.079362   2.589734
    12  C    2.900000   3.117986   3.442093   3.436987   3.242640
    13  H    3.530114   3.406170   3.864046   4.217730   3.802747
    14  H    3.454367   3.996491   4.430562   4.217452   3.507402
    15  C    3.416547   3.445489   3.135618   2.900000   4.081868
    16  H    4.185210   4.441315   4.049039   3.490997   4.765817
    17  H    4.229812   3.907125   3.439786   3.521019   4.955874
                    6          7          8          9         10
     6  H    0.000000
     7  H    2.709815   0.000000
     8  H    4.368483   2.706274   0.000000
     9  C    3.343501   3.343533   2.221503   0.000000
    10  H    4.030252   4.030998   2.597016   1.087848   0.000000
    11  H    4.030258   4.028818   2.586075   1.083361   1.760579
    12  C    3.605964   4.122103   4.111646   3.123345   4.153355
    13  H    3.559005   4.348715   4.946308   4.054067   5.101819
    14  H    4.482045   5.191418   4.826473   3.610669   4.509023
    15  C    4.131313   3.639114   3.246396   3.097693   4.125817
    16  H    5.203868   4.564393   3.565367   3.585302   4.477993
    17  H    4.412106   3.609297   3.775049   4.035196   5.078428
                   11         12         13         14         15
    11  H    0.000000
    12  C    2.668222   0.000000
    13  H    3.762437   1.160443   0.000000
    14  H    2.903471   1.126774   1.824075   0.000000
    15  C    2.625434   1.442616   2.175140   2.189388   0.000000
    16  H    2.842717   2.180634   3.001087   2.420909   1.137742
    17  H    3.718856   2.171230   2.342687   2.997413   1.157673
                   16         17
    16  H    0.000000
    17  H    1.822342   0.000000
 Stoichiometry    C7H10
 Framework group  C1[X(C7H10)]
 Deg. of freedom    45
 Full point group                 C1      NOp   1
 Largest Abelian subgroup         C1      NOp   1
 Largest concise Abelian subgroup C1      NOp   1
                         Standard orientation:                         
 ---------------------------------------------------------------------
 Center     Atomic      Atomic             Coordinates (Angstroms)
 Number     Number       Type             X           Y           Z
 ---------------------------------------------------------------------
      1          6           0       -0.872894    1.142392   -0.399904
      2          6           0       -1.037298    0.766727    0.925978
      3          6           0       -1.049663   -0.676548    0.987974
      4          6           0       -0.892817   -1.167173   -0.300689
      5          1           0       -0.818039    2.138777   -0.824489
      6          1           0       -1.135284    1.436999    1.769757
      7          1           0       -1.158584   -1.270220    1.886035
      8          1           0       -0.855939   -2.196970   -0.638536
      9          6           0       -0.791185   -0.049902   -1.205090
     10          1           0       -1.594325   -0.073416   -1.938457
     11          1           0        0.154212   -0.082902   -1.733111
     12          6           0        1.958314    0.717523    0.062424
     13          1           0        2.341893    1.173660    1.058132
     14          1           0        2.562836    1.208012   -0.752187
     15          6           0        1.948899   -0.725028    0.072347
     16          1           0        2.569204   -1.212883   -0.747212
     17          1           0        2.353890   -1.168993    1.061834
 ---------------------------------------------------------------------
 Rotational constants (GHZ):           3.7007551           2.1472060           2.0152784
 Standard basis: 3-21G (6D, 7F)
 There are    83 symmetry adapted cartesian basis functions of A   symmetry.
 There are    83 symmetry adapted basis functions of A   symmetry.
    83 basis functions,   135 primitive gaussians,    83 cartesian basis functions
    26 alpha electrons       26 beta electrons
       nuclear repulsion energy       279.4983702870 Hartrees.
 NAtoms=   17 NActive=   17 NUniq=   17 SFac= 1.00D+00 NAtFMM=   60 NAOKFM=F Big=F
 Integral buffers will be    131072 words long.
 Raffenetti 2 integral format.
 Two-electron integral symmetry is turned on.
 One-electron integrals computed using PRISM.
 NBasis=    83 RedAO= T EigKep=  4.30D-03  NBF=    83
 NBsUse=    83 1.00D-06 EigRej= -1.00D+00 NBFU=    83
 Initial guess from the checkpoint file:  "C3.chk"
 B after Tr=    -0.000000   -0.000000    0.000000
         Rot=    0.999959    0.000566    0.008766   -0.002103 Ang=   1.04 deg.
 ExpMin= 1.83D-01 ExpMax= 1.72D+02 ExpMxC= 1.72D+02 IAcc=3 IRadAn=         5 AccDes= 0.00D+00
 Harris functional with IExCor=  402 and IRadAn=       5 diagonalized for initial guess.
 HarFok:  IExCor=  402 AccDes= 0.00D+00 IRadAn=         5 IDoV= 1 UseB2=F ITyADJ=14
 ICtDFT=  3500011 ScaDFX=  1.000000  1.000000  1.000000  1.000000
 FoFCou: FMM=F IPFlag=           0 FMFlag=      100000 FMFlg1=           0
         NFxFlg=           0 DoJE=T BraDBF=F KetDBF=T FulRan=T
         wScrn=  0.000000 ICntrl=       500 IOpCl=  0 I1Cent=   200000004 NGrid=           0
         NMat0=    1 NMatS0=      1 NMatT0=    0 NMatD0=    1 NMtDS0=    0 NMtDT0=    0
 Petite list used in FoFCou.
 Keep R1 ints in memory in canonical form, NReq=7891700.
 Requested convergence on RMS density matrix=1.00D-08 within 128 cycles.
 Requested convergence on MAX density matrix=1.00D-06.
 Requested convergence on             energy=1.00D-06.
 No special actions if energy rises.
 Integral accuracy reduced to 1.0D-05 until final iterations.
 Initial convergence to 1.0D-05 achieved.  Increase integral accuracy.
 SCF Done:  E(RB3LYP) =  -271.116557642     A.U. after   13 cycles
            NFock= 13  Conv=0.38D-08     -V/T= 2.0099
 Calling FoFJK, ICntrl=      2127 FMM=F ISym2X=0 I1Cent= 0 IOpClX= 0 NMat=1 NMatS=1 NMatT=0.
 ***** Axes restored to original set *****
 -------------------------------------------------------------------
 Center     Atomic                   Forces (Hartrees/Bohr)
 Number     Number              X              Y              Z
 -------------------------------------------------------------------
      1        6           0.033835730   -0.038566887    0.006142346
      2        6          -0.021642939   -0.011174326   -0.003000393
      3        6          -0.011601223    0.021675159   -0.003229275
      4        6           0.050021306    0.012498466    0.006132255
      5        1           0.005771692   -0.000123039   -0.000622240
      6        1          -0.000169382    0.001571567    0.000350803
      7        1          -0.001025947   -0.001216537    0.000383235
      8        1           0.004824623   -0.003162828   -0.000524051
      9        6          -0.042222666    0.012849716   -0.004944344
     10        1          -0.008518951    0.002686350   -0.006799285
     11        1          -0.009086543    0.002675800    0.005361149
     12        6           0.030325343    0.043705661    0.069201585
     13        1          -0.018842837    0.012923608   -0.037908536
     14        1           0.005893949    0.004193235   -0.031753880
     15        6          -0.003800769   -0.051062625    0.074329612
     16        1           0.006530556   -0.007911768   -0.034410507
     17        1          -0.020291942   -0.001561552   -0.038708474
 -------------------------------------------------------------------
 Cartesian Forces:  Max     0.074329612 RMS     0.024598524

 GradGradGradGradGradGradGradGradGradGradGradGradGradGradGradGradGradGrad
 Berny optimization.
 Using GEDIIS/GDIIS optimizer.
 FormGI is forming the generalized inverse of G from B-inverse, IUseBI=4.
 Internal  Forces:  Max     0.053209995 RMS     0.013111414
 Search for a local minimum.
 Step number   2 out of a maximum of   98
 All quantities printed in internal units (Hartrees-Bohrs-Radians)
 Mixed Optimization -- RFO/linear search
 Update second derivatives using D2CorX and points    1    2
 DE= -5.13D-02 DEPred=-4.80D-02 R= 1.07D+00
 TightC=F SS=  1.41D+00  RLast= 3.50D-01 DXNew= 5.0454D-01 1.0487D+00
 Trust test= 1.07D+00 RLast= 3.50D-01 DXMaxT set to 5.05D-01
 ITU=  1  0
 Use linear search instead of GDIIS.
 Linear search step of   0.565 exceeds DXMaxT=   0.505 but not scaled.
 Quartic linear search produced a step of  1.88701.
 Iteration  1 RMS(Cart)=  0.07983416 RMS(Int)=  0.00714500
 Iteration  2 RMS(Cart)=  0.00805086 RMS(Int)=  0.00358232
 Iteration  3 RMS(Cart)=  0.00004669 RMS(Int)=  0.00358211
 Iteration  4 RMS(Cart)=  0.00000038 RMS(Int)=  0.00358211
 Iteration  1 RMS(Cart)=  0.00014821 RMS(Int)=  0.00002914
 Iteration  2 RMS(Cart)=  0.00001631 RMS(Int)=  0.00003070
 Iteration  3 RMS(Cart)=  0.00000243 RMS(Int)=  0.00003118
 Iteration  4 RMS(Cart)=  0.00000041 RMS(Int)=  0.00003126
 Variable       Old X    -DE/DX   Delta X   Delta X   Delta X     New X
                                 (Linear)    (Quad)   (Total)
    R1        2.62265  -0.01783  -0.04958   0.00000  -0.04982   2.57283
    R2        2.04934  -0.00346  -0.01712   0.00000  -0.01712   2.03222
    R3        2.72315   0.04083   0.17556   0.00000   0.17601   2.89916
    R4        5.48021   0.00171   0.00000   0.00000  -0.00000   5.48021
    R5        2.73001   0.01308   0.03490   0.00000   0.03417   2.76418
    R6        2.04478  -0.00136  -0.00988   0.00000  -0.00988   2.03490
    R7        2.62255  -0.01803  -0.05013   0.00000  -0.05039   2.57216
    R8        2.04477  -0.00136  -0.00986   0.00000  -0.00986   2.03491
    R9        2.04927  -0.00346  -0.01713   0.00000  -0.01713   2.03214
   R10        2.72315   0.04091   0.17553   0.00000   0.17609   2.89924
   R11        5.48021   0.00239  -0.00000   0.00000  -0.00000   5.48021
   R12        2.05573   0.01077   0.06364   0.00000   0.06364   2.11938
   R13        2.04725   0.00739   0.04764   0.00000   0.04684   2.09410
   R14        5.04221  -0.00419  -0.04033   0.00000  -0.04149   5.00072
   R15        4.96135  -0.00378  -0.03725   0.00000  -0.03601   4.92534
   R16        2.19292  -0.03646  -0.19305   0.00000  -0.19305   1.99987
   R17        2.12929  -0.02046  -0.10297   0.00000  -0.10297   2.02633
   R18        2.72615  -0.05321  -0.23663   0.00000  -0.23816   2.48798
   R19        2.15002  -0.02512  -0.12695   0.00000  -0.12695   2.02307
   R20        2.18768  -0.03522  -0.18635   0.00000  -0.18635   2.00133
    A1        2.25071  -0.00420  -0.03760   0.00000  -0.03771   2.21300
    A2        1.89291  -0.00112   0.00125   0.00000   0.00131   1.89421
    A3        2.13952   0.00530   0.03626   0.00000   0.03603   2.17555
    A4        1.88855   0.00817   0.03355   0.00000   0.03248   1.92103
    A5        2.19942  -0.00326  -0.01393   0.00000  -0.01341   2.18601
    A6        2.19520  -0.00491  -0.01964   0.00000  -0.01914   2.17607
    A7        1.88849   0.00812   0.03348   0.00000   0.03239   1.92088
    A8        2.19519  -0.00491  -0.01966   0.00000  -0.01915   2.17604
    A9        2.19950  -0.00322  -0.01384   0.00000  -0.01331   2.18619
   A10        2.25088  -0.00424  -0.03776   0.00000  -0.03786   2.21302
   A11        1.89299  -0.00102   0.00154   0.00000   0.00157   1.89456
   A12        2.13927   0.00525   0.03612   0.00000   0.03589   2.17515
   A13        1.86170  -0.01419  -0.07008   0.00000  -0.06884   1.79286
   A14        1.93126   0.00494   0.03341   0.00000   0.03402   1.96528
   A15        1.92518   0.00477   0.02186   0.00000   0.02114   1.94632
   A16        1.93293   0.00518   0.03647   0.00000   0.03654   1.96947
   A17        1.92178   0.00414   0.01552   0.00000   0.01600   1.93778
   A18        1.89129  -0.00465  -0.03650   0.00000  -0.03664   1.85465
   A19        1.82649  -0.00484  -0.02020   0.00000  -0.02185   1.80464
   A20        1.84295  -0.00447  -0.01501   0.00000  -0.01791   1.82504
   A21        2.73587  -0.01646  -0.10032   0.00000  -0.10125   2.63461
   A22        1.57763  -0.00837  -0.07238   0.00000  -0.07847   1.49917
   A23        1.84614   0.01368   0.09933   0.00000   0.08101   1.92715
   A24        1.97068   0.00078   0.01983   0.00000   0.02218   1.99286
   A25        2.03058   0.00937   0.07100   0.00000   0.06454   2.09512
   A26        1.55300  -0.00914  -0.07574   0.00000  -0.08106   1.47194
   A27        2.74068  -0.01803  -0.10722   0.00000  -0.10679   2.63390
   A28        2.00453   0.01184   0.08562   0.00000   0.07874   2.08327
   A29        1.96825   0.00135   0.01954   0.00000   0.01898   1.98724
   A30        1.83435   0.01392   0.10227   0.00000   0.08442   1.91877
    D1        3.14081  -0.00023  -0.00170   0.00000   0.00019   3.14100
    D2       -0.00493  -0.00080  -0.00947   0.00000  -0.00867  -0.01360
    D3        0.00978   0.00137   0.01844   0.00000   0.01976   0.02954
    D4       -3.13596   0.00081   0.01067   0.00000   0.01089  -3.12506
    D5       -0.01546  -0.00199  -0.02931   0.00000  -0.02888  -0.04434
    D6        2.08826  -0.00162  -0.00831   0.00000  -0.00900   2.07926
    D7       -2.10232  -0.00116  -0.01854   0.00000  -0.01849  -2.12081
    D8        3.13588  -0.00045  -0.01072   0.00000  -0.00930   3.12658
    D9       -1.04358  -0.00008   0.01028   0.00000   0.01058  -1.03300
   D10        1.04902   0.00038   0.00005   0.00000   0.00109   1.05011
   D11       -0.00010   0.00000  -0.00005   0.00000  -0.00002  -0.00012
   D12        3.13758  -0.00055  -0.00762   0.00000  -0.00870   3.12888
   D13       -3.13756   0.00056   0.00770   0.00000   0.00877  -3.12879
   D14        0.00012   0.00000   0.00012   0.00000   0.00009   0.00021
   D15       -3.14008   0.00032   0.00259   0.00000   0.00053  -3.13956
   D16       -0.00962  -0.00137  -0.01838   0.00000  -0.01974  -0.02936
   D17        0.00543   0.00088   0.01019   0.00000   0.00929   0.01472
   D18        3.13589  -0.00081  -0.01078   0.00000  -0.01098   3.12492
   D19        0.01540   0.00199   0.02928   0.00000   0.02888   0.04428
   D20       -2.08725   0.00180   0.01024   0.00000   0.01079  -2.07647
   D21        2.10446   0.00161   0.02262   0.00000   0.02225   2.12672
   D22       -3.13646   0.00036   0.00994   0.00000   0.00860  -3.12786
   D23        1.04407   0.00016  -0.00910   0.00000  -0.00950   1.03458
   D24       -1.04740  -0.00002   0.00327   0.00000   0.00197  -1.04543
   D25        0.73413   0.00004  -0.00359   0.00000  -0.00307   0.73106
   D26        1.30601  -0.01173  -0.05315   0.00000  -0.05306   1.25296
   D27       -1.31596   0.01204   0.05955   0.00000   0.05906  -1.25690
   D28       -0.74408   0.00026   0.00999   0.00000   0.00907  -0.73501
   D29        2.85069   0.00609   0.02804   0.00000   0.02797   2.87866
   D30       -2.86061  -0.00569  -0.02152   0.00000  -0.02202  -2.88263
   D31       -0.20175  -0.00837  -0.06624   0.00000  -0.05819  -0.25994
   D32       -2.55467   0.01038   0.09628   0.00000   0.09144  -2.46323
   D33        2.64064  -0.00994  -0.08442   0.00000  -0.08031   2.56033
   D34        0.39386   0.00713   0.04741   0.00000   0.04112   0.43498
   D35       -2.12914  -0.02772  -0.20135   0.00000  -0.20905  -2.33819
   D36       -0.02803   0.00093   0.00364   0.00000   0.00387  -0.02416
   D37        0.01052  -0.00046  -0.00031   0.00000  -0.00047   0.01005
   D38        2.11162   0.02820   0.20467   0.00000   0.21246   2.32408
         Item               Value     Threshold  Converged?
 Maximum Force            0.053130     0.000450     NO 
 RMS     Force            0.013259     0.000300     NO 
 Maximum Displacement     0.254843     0.001800     NO 
 RMS     Displacement     0.081778     0.001200     NO 
 Predicted change in Energy=-4.393060D-02
 GradGradGradGradGradGradGradGradGradGradGradGradGradGradGradGradGradGrad

                          Input orientation:                          
 ---------------------------------------------------------------------
 Center     Atomic      Atomic             Coordinates (Angstroms)
 Number     Number       Type             X           Y           Z
 ---------------------------------------------------------------------
      1          6           0        1.957767   -1.399264    0.085027
      2          6           0        3.316282   -1.332735    0.024661
      3          6           0        3.751202    0.063834    0.032001
      4          6           0        2.670634    0.888957    0.096890
      5          1           0        1.356311   -2.290700    0.094528
      6          1           0        3.979078   -2.180684   -0.010408
      7          1           0        4.778352    0.385818    0.002896
      8          1           0        2.681380    1.964105    0.115459
      9          6           0        1.399598    0.029729    0.095055
     10          1           0        0.734079    0.238699   -0.783146
     11          1           0        0.788927    0.221191    0.999720
     12          6           0        2.186881   -0.919015    2.935794
     13          1           0        2.954502   -1.570093    3.262633
     14          1           0        1.239914   -1.228289    3.332527
     15          6           0        2.520406    0.354602    2.943273
     16          1           0        1.842150    1.072435    3.356544
     17          1           0        3.501206    0.538528    3.297971
 ---------------------------------------------------------------------
                    Distance matrix (angstroms):
                    1          2          3          4          5
     1  C    0.000000
     2  C    1.361482   0.000000
     3  C    2.315141   1.462742   0.000000
     4  C    2.396722   2.314735   1.361127   0.000000
     5  H    1.075406   2.182674   3.359054   3.440592   0.000000
     6  H    2.169198   1.076821   2.256454   3.338598   2.627169
     7  H    3.339006   2.256446   1.076828   2.168976   4.345401
     8  H    3.440464   3.358645   2.182318   1.075361   4.456412
     9  C    1.534169   2.352646   2.352696   1.534213   2.320833
    10  H    2.221274   3.128854   3.130188   2.224308   2.748698
    11  H    2.197436   3.122971   3.120307   2.191309   2.729632
    12  C    2.900000   3.149826   3.441671   3.400316   3.262538
    13  H    3.334642   3.266755   3.706944   4.018636   3.620825
    14  H    3.330285   3.906941   4.343918   4.122989   3.409824
    15  C    3.400320   3.463932   3.174100   2.900000   4.058089
    16  H    4.101888   4.365702   3.964132   3.368292   4.710357
    17  H    4.057123   3.774967   3.309741   3.325592   4.781961
                    6          7          8          9         10
     6  H    0.000000
     7  H    2.688113   0.000000
     8  H    4.345012   2.626966   0.000000
     9  C    3.398641   3.398716   2.320601   0.000000
    10  H    4.120746   4.122578   2.752544   1.121527   0.000000
    11  H    4.119031   4.115370   2.720486   1.108150   1.783796
    12  C    3.672040   4.125555   4.063396   3.096728   4.157096
    13  H    3.483586   4.216386   4.740238   3.874365   4.956847
    14  H    4.425526   5.119798   4.755915   3.476971   4.398487
    15  C    4.156877   3.707441   3.257751   3.078002   4.134078
    16  H    5.146417   4.509954   3.464681   3.452593   4.365773
    17  H    4.309042   3.537222   3.582284   3.864492   4.939879
                   11         12         13         14         15
    11  H    0.000000
    12  C    2.646266   0.000000
    13  H    3.608211   1.058286   0.000000
    14  H    2.783229   1.072285   1.749722   0.000000
    15  C    2.606379   1.316584   1.998720   2.072854   0.000000
    16  H    2.718182   2.064399   2.868641   2.378360   1.070564
    17  H    3.569190   1.995759   2.178628   2.869892   1.059061
                   16         17
    16  H    0.000000
    17  H    1.743833   0.000000
 Stoichiometry    C7H10
 Framework group  C1[X(C7H10)]
 Deg. of freedom    45
 Full point group                 C1      NOp   1
 Largest Abelian subgroup         C1      NOp   1
 Largest concise Abelian subgroup C1      NOp   1
                         Standard orientation:                         
 ---------------------------------------------------------------------
 Center     Atomic      Atomic             Coordinates (Angstroms)
 Number     Number       Type             X           Y           Z
 ---------------------------------------------------------------------
      1          6           0       -0.851243    1.182624   -0.382666
      2          6           0       -1.094467    0.766926    0.890783
      3          6           0       -1.092721   -0.694591    0.950612
      4          6           0       -0.848580   -1.212082   -0.284404
      5          1           0       -0.793966    2.199291   -0.728506
      6          1           0       -1.252761    1.414561    1.736393
      7          1           0       -1.249737   -1.271301    1.846329
      8          1           0       -0.790066   -2.253397   -0.546398
      9          6           0       -0.709579   -0.053396   -1.280364
     10          1           0       -1.479615   -0.084897   -2.095149
     11          1           0        0.276918   -0.078628   -1.784529
     12          6           0        1.957715    0.665124    0.119276
     13          1           0        2.150909    1.096197    1.066283
     14          1           0        2.468128    1.209552   -0.650706
     15          6           0        1.968728   -0.651402    0.113607
     16          1           0        2.498457   -1.168598   -0.659700
     17          1           0        2.192614   -1.082002    1.054918
 ---------------------------------------------------------------------
 Rotational constants (GHZ):           3.6688699           2.1577312           2.0243749
 Standard basis: 3-21G (6D, 7F)
 There are    83 symmetry adapted cartesian basis functions of A   symmetry.
 There are    83 symmetry adapted basis functions of A   symmetry.
    83 basis functions,   135 primitive gaussians,    83 cartesian basis functions
    26 alpha electrons       26 beta electrons
       nuclear repulsion energy       280.0393589786 Hartrees.
 NAtoms=   17 NActive=   17 NUniq=   17 SFac= 1.00D+00 NAtFMM=   60 NAOKFM=F Big=F
 Integral buffers will be    131072 words long.
 Raffenetti 2 integral format.
 Two-electron integral symmetry is turned on.
 One-electron integrals computed using PRISM.
 NBasis=    83 RedAO= T EigKep=  4.62D-03  NBF=    83
 NBsUse=    83 1.00D-06 EigRej= -1.00D+00 NBFU=    83
 Initial guess from the checkpoint file:  "C3.chk"
 B after Tr=     0.000000   -0.000000    0.000000
         Rot=    0.999843   -0.001646    0.017215   -0.003963 Ang=  -2.03 deg.
 ExpMin= 1.83D-01 ExpMax= 1.72D+02 ExpMxC= 1.72D+02 IAcc=3 IRadAn=         5 AccDes= 0.00D+00
 Harris functional with IExCor=  402 and IRadAn=       5 diagonalized for initial guess.
 HarFok:  IExCor=  402 AccDes= 0.00D+00 IRadAn=         5 IDoV= 1 UseB2=F ITyADJ=14
 ICtDFT=  3500011 ScaDFX=  1.000000  1.000000  1.000000  1.000000
 FoFCou: FMM=F IPFlag=           0 FMFlag=      100000 FMFlg1=           0
         NFxFlg=           0 DoJE=T BraDBF=F KetDBF=T FulRan=T
         wScrn=  0.000000 ICntrl=       500 IOpCl=  0 I1Cent=   200000004 NGrid=           0
         NMat0=    1 NMatS0=      1 NMatT0=    0 NMatD0=    1 NMtDS0=    0 NMtDT0=    0
 Petite list used in FoFCou.
 Keep R1 ints in memory in canonical form, NReq=7891700.
 Requested convergence on RMS density matrix=1.00D-08 within 128 cycles.
 Requested convergence on MAX density matrix=1.00D-06.
 Requested convergence on             energy=1.00D-06.
 No special actions if energy rises.
 Integral accuracy reduced to 1.0D-05 until final iterations.
 Initial convergence to 1.0D-05 achieved.  Increase integral accuracy.
 SCF Done:  E(RB3LYP) =  -271.154506059     A.U. after   14 cycles
            NFock= 14  Conv=0.50D-08     -V/T= 2.0085
 Calling FoFJK, ICntrl=      2127 FMM=F ISym2X=0 I1Cent= 0 IOpClX= 0 NMat=1 NMatS=1 NMatT=0.
 ***** Axes restored to original set *****
 -------------------------------------------------------------------
 Center     Atomic                   Forces (Hartrees/Bohr)
 Number     Number              X              Y              Z
 -------------------------------------------------------------------
      1        6           0.007339844    0.014006381    0.000474049
      2        6          -0.009086769   -0.000937654   -0.001730193
      3        6          -0.006814894    0.006027500   -0.002013225
      4        6          -0.001715975   -0.015571866   -0.000436732
      5        1          -0.002801944   -0.001766206   -0.000261962
      6        1           0.002982593   -0.001860296    0.000177320
      7        1           0.003506099   -0.000192037    0.000254683
      8        1          -0.001318570    0.003061658   -0.000143542
      9        6          -0.009773352    0.003094734   -0.003166301
     10        1           0.011203999   -0.003285932    0.007341805
     11        1           0.005448621   -0.002198724   -0.007103990
     12        6          -0.008312491   -0.013142110    0.034496296
     13        1           0.017330212   -0.026049184   -0.015138259
     14        1          -0.019971694   -0.005706066   -0.017214597
     15        6          -0.000655308    0.013494901    0.036741617
     16        1          -0.015706478    0.016620646   -0.016740468
     17        1           0.028346105    0.014404254   -0.015536501
 -------------------------------------------------------------------
 Cartesian Forces:  Max     0.036741617 RMS     0.012573030

 GradGradGradGradGradGradGradGradGradGradGradGradGradGradGradGradGradGrad
 Berny optimization.
 Using GEDIIS/GDIIS optimizer.
 FormGI is forming the generalized inverse of G from B-inverse, IUseBI=4.
 Internal  Forces:  Max     0.046318954 RMS     0.009115840
 Search for a local minimum.
 Step number   3 out of a maximum of   98
 All quantities printed in internal units (Hartrees-Bohrs-Radians)
 Mixed Optimization -- RFO/linear search
 Update second derivatives using D2CorX and points    2    3
 ITU=  0  1  0
 Use linear search instead of GDIIS.
     Eigenvalues ---    0.00762   0.01261   0.01794   0.01912   0.01923
     Eigenvalues ---    0.02140   0.02145   0.02175   0.02246   0.02539
     Eigenvalues ---    0.03793   0.04200   0.05065   0.05561   0.06093
     Eigenvalues ---    0.07250   0.08897   0.10218   0.10729   0.15603
     Eigenvalues ---    0.15894   0.15989   0.15998   0.15999   0.16032
     Eigenvalues ---    0.19203   0.21991   0.23780   0.24985   0.26784
     Eigenvalues ---    0.28129   0.33505   0.34867   0.34900   0.35377
     Eigenvalues ---    0.35419   0.36051   0.36835   0.38624   0.40631
     Eigenvalues ---    0.40658   0.45498   0.464201000.000001000.00000
     Eigenvalues --- 1000.000001000.000001000.000001000.000001000.00000
     Eigenvalues --- 1000.000001000.000001000.000001000.000001000.00000
     Eigenvalues --- 1000.000001000.000001000.000001000.000001000.00000
     Eigenvalues --- 1000.000001000.000001000.000001000.000001000.00000
     Eigenvalues --- 1000.000001000.000001000.000001000.000001000.00000
     Eigenvalues --- 1000.000001000.000001000.000001000.000001000.00000
     Eigenvalues --- 1000.000001000.000001000.000001000.000001000.00000
     Eigenvalues --- 1000.000001000.000001000.000001000.000001000.00000
     Eigenvalues --- 1000.000001000.000001000.00000
 RFO step:  Lambda=-3.94903328D-02 EMin= 7.62234683D-03
 Quartic linear search produced a step of -0.07519.
 Iteration  1 RMS(Cart)=  0.06037813 RMS(Int)=  0.01628709
 Iteration  2 RMS(Cart)=  0.01411907 RMS(Int)=  0.00626424
 Iteration  3 RMS(Cart)=  0.00045342 RMS(Int)=  0.00624926
 Iteration  4 RMS(Cart)=  0.00000711 RMS(Int)=  0.00624925
 Iteration  5 RMS(Cart)=  0.00000013 RMS(Int)=  0.00624925
 Iteration  1 RMS(Cart)=  0.00009110 RMS(Int)=  0.00001490
 Iteration  2 RMS(Cart)=  0.00000733 RMS(Int)=  0.00001548
 Iteration  3 RMS(Cart)=  0.00000079 RMS(Int)=  0.00001560
 Variable       Old X    -DE/DX   Delta X   Delta X   Delta X     New X
                                 (Linear)    (Quad)   (Total)
    R1        2.57283  -0.00616   0.00375  -0.02160  -0.01786   2.55497
    R2        2.03222   0.00303   0.00129   0.00328   0.00457   2.03679
    R3        2.89916  -0.00927  -0.01323   0.01569   0.00249   2.90165
    R4        5.48021   0.00033   0.00000   0.00000   0.00000   5.48021
    R5        2.76418  -0.00013  -0.00257   0.00701   0.00444   2.76862
    R6        2.03490   0.00330   0.00074   0.00538   0.00613   2.04102
    R7        2.57216  -0.00617   0.00379  -0.02175  -0.01797   2.55419
    R8        2.03491   0.00328   0.00074   0.00535   0.00609   2.04100
    R9        2.03214   0.00305   0.00129   0.00332   0.00461   2.03674
   R10        2.89924  -0.00910  -0.01324   0.01598   0.00281   2.90205
   R11        5.48021   0.00121   0.00000   0.00000  -0.00000   5.48021
   R12        2.11938  -0.01301  -0.00479  -0.01565  -0.02043   2.09895
   R13        2.09410  -0.00565  -0.00352  -0.00545  -0.00839   2.08571
   R14        5.00072   0.00251   0.00312  -0.00842  -0.00458   4.99614
   R15        4.92534   0.00191   0.00271  -0.00092   0.00333   4.92867
   R16        1.99987   0.02392   0.01452   0.03033   0.04485   2.04472
   R17        2.02633   0.01291   0.00774   0.01241   0.02015   2.04648
   R18        2.48798   0.04632   0.01791   0.06949   0.08401   2.57199
   R19        2.02307   0.01463   0.00955   0.01320   0.02275   2.04582
   R20        2.00133   0.02355   0.01401   0.03008   0.04410   2.04543
    A1        2.21300   0.00011   0.00284  -0.00652  -0.00375   2.20925
    A2        1.89421   0.00240  -0.00010   0.00859   0.00848   1.90269
    A3        2.17555  -0.00253  -0.00271  -0.00257  -0.00533   2.17023
    A4        1.92103  -0.00217  -0.00244   0.00011  -0.00230   1.91873
    A5        2.18601   0.00230   0.00101   0.00592   0.00691   2.19292
    A6        2.17607  -0.00013   0.00144  -0.00609  -0.00467   2.17140
    A7        1.92088  -0.00227  -0.00244  -0.00026  -0.00267   1.91821
    A8        2.17604  -0.00010   0.00144  -0.00603  -0.00461   2.17144
    A9        2.18619   0.00238   0.00100   0.00622   0.00721   2.19339
   A10        2.21302   0.00011   0.00285  -0.00657  -0.00378   2.20924
   A11        1.89456   0.00243  -0.00012   0.00879   0.00866   1.90322
   A12        2.17515  -0.00256  -0.00270  -0.00275  -0.00550   2.16966
   A13        1.79286  -0.00040   0.00518  -0.01820  -0.01315   1.77971
   A14        1.96528  -0.00113  -0.00256   0.00005  -0.00265   1.96263
   A15        1.94632   0.00080  -0.00159   0.00793   0.00645   1.95277
   A16        1.96947  -0.00118  -0.00275  -0.00008  -0.00306   1.96641
   A17        1.93778   0.00058  -0.00120   0.00497   0.00414   1.94192
   A18        1.85465   0.00127   0.00276   0.00530   0.00786   1.86251
   A19        1.80464   0.00314   0.00164   0.00315   0.00422   1.80886
   A20        1.82504   0.00385   0.00135   0.00611   0.00639   1.83144
   A21        2.63461  -0.01333   0.00761  -0.13369  -0.12182   2.51279
   A22        1.49917  -0.00686   0.00590  -0.11997  -0.11899   1.38017
   A23        1.92715   0.00506  -0.00609   0.06266   0.02577   1.95292
   A24        1.99286   0.01099  -0.00167   0.08371   0.07923   2.07209
   A25        2.09512   0.00486  -0.00485   0.10144   0.07772   2.17285
   A26        1.47194  -0.00727   0.00610  -0.12226  -0.11971   1.35223
   A27        2.63390  -0.01478   0.00803  -0.14239  -0.12827   2.50563
   A28        2.08327   0.00598  -0.00592   0.10894   0.08297   2.16624
   A29        1.98724   0.01243  -0.00143   0.08784   0.08135   2.06859
   A30        1.91877   0.00518  -0.00635   0.06884   0.03245   1.95122
    D1        3.14100  -0.00081  -0.00001  -0.00690  -0.00707   3.13393
    D2       -0.01360  -0.00074   0.00065  -0.01166  -0.01109  -0.02469
    D3        0.02954   0.00003  -0.00149   0.01132   0.00973   0.03926
    D4       -3.12506   0.00010  -0.00082   0.00655   0.00571  -3.11936
    D5       -0.04434  -0.00009   0.00217  -0.01703  -0.01472  -0.05905
    D6        2.07926  -0.00235   0.00068  -0.02854  -0.02786   2.05141
    D7       -2.12081  -0.00093   0.00139  -0.01617  -0.01504  -2.13585
    D8        3.12658   0.00067   0.00070   0.00080   0.00159   3.12818
    D9       -1.03300  -0.00158  -0.00080  -0.01072  -0.01155  -1.04455
   D10        1.05011  -0.00016  -0.00008   0.00166   0.00127   1.05138
   D11       -0.00012   0.00003   0.00000   0.00058   0.00060   0.00048
   D12        3.12888   0.00007   0.00065  -0.00520  -0.00444   3.12444
   D13       -3.12879  -0.00007  -0.00066   0.00521   0.00446  -3.12434
   D14        0.00021  -0.00003  -0.00001  -0.00057  -0.00059  -0.00038
   D15       -3.13956   0.00078  -0.00004   0.00621   0.00627  -3.13329
   D16       -0.02936  -0.00008   0.00148  -0.01221  -0.01065  -0.04001
   D17        0.01472   0.00077  -0.00070   0.01214   0.01149   0.02621
   D18        3.12492  -0.00009   0.00083  -0.00628  -0.00542   3.11949
   D19        0.04428   0.00011  -0.00217   0.01739   0.01509   0.05937
   D20       -2.07647   0.00234  -0.00081   0.02888   0.02801  -2.04846
   D21        2.12672   0.00110  -0.00167   0.01870   0.01713   2.14384
   D22       -3.12786  -0.00066  -0.00065  -0.00063  -0.00132  -3.12918
   D23        1.03458   0.00157   0.00071   0.01086   0.01159   1.04617
   D24       -1.04543   0.00033  -0.00015   0.00068   0.00071  -1.04471
   D25        0.73106  -0.00484   0.00023  -0.01275  -0.01206   0.71901
   D26        1.25296   0.00533   0.00399   0.00325   0.00681   1.25977
   D27       -1.25690  -0.00517  -0.00444   0.00191  -0.00222  -1.25912
   D28       -0.73501   0.00499  -0.00068   0.01791   0.01664  -0.71836
   D29        2.87866  -0.00490  -0.00210  -0.00440  -0.00611   2.87255
   D30       -2.88263   0.00526   0.00166   0.01160   0.01275  -2.86988
   D31       -0.25994  -0.00728   0.00438  -0.11069  -0.09157  -0.35151
   D32       -2.46323   0.01193  -0.00688   0.16503   0.15075  -2.31249
   D33        2.56033  -0.01163   0.00604  -0.15723  -0.14554   2.41479
   D34        0.43498   0.00618  -0.00309   0.07832   0.06259   0.49757
   D35       -2.33819  -0.02863   0.01572  -0.32960  -0.32431  -2.66250
   D36       -0.02416   0.00089  -0.00029   0.00527   0.00541  -0.01875
   D37        0.01005  -0.00060   0.00004   0.00131   0.00105   0.01109
   D38        2.32408   0.02892  -0.01598   0.33618   0.33077   2.65485
         Item               Value     Threshold  Converged?
 Maximum Force            0.046345     0.000450     NO 
 RMS     Force            0.009220     0.000300     NO 
 Maximum Displacement     0.275930     0.001800     NO 
 RMS     Displacement     0.069181     0.001200     NO 
 Predicted change in Energy=-2.822780D-02
 GradGradGradGradGradGradGradGradGradGradGradGradGradGradGradGradGradGrad

                          Input orientation:                          
 ---------------------------------------------------------------------
 Center     Atomic      Atomic             Coordinates (Angstroms)
 Number     Number       Type             X           Y           Z
 ---------------------------------------------------------------------
      1          6           0        1.965458   -1.398286    0.123916
      2          6           0        3.313131   -1.334616    0.036066
      3          6           0        3.748807    0.064167    0.045457
      4          6           0        2.675242    0.879907    0.139810
      5          1           0        1.363867   -2.292555    0.132741
      6          1           0        3.981174   -2.181659   -0.016587
      7          1           0        4.779868    0.382674    0.000968
      8          1           0        2.687220    1.957421    0.161507
      9          6           0        1.397419    0.028131    0.143661
     10          1           0        0.741952    0.235777   -0.728655
     11          1           0        0.792731    0.217689    1.047318
     12          6           0        2.179443   -0.937779    2.979112
     13          1           0        2.942342   -1.676279    3.187365
     14          1           0        1.185501   -1.314401    3.186511
     15          6           0        2.523003    0.379122    2.992184
     16          1           0        1.835957    1.183640    3.221842
     17          1           0        3.545559    0.644167    3.228212
 ---------------------------------------------------------------------
                    Distance matrix (angstroms):
                    1          2          3          4          5
     1  C    0.000000
     2  C    1.352033   0.000000
     3  C    2.307653   1.465093   0.000000
     4  C    2.386255   2.306898   1.351620   0.000000
     5  H    1.077825   2.174080   3.354058   3.432823   0.000000
     6  H    2.167147   1.080063   2.258668   3.332133   2.623908
[...]
 ! A20   A(9,11,15)             98.5237         -DE/DX =    0.001               !
 ! A21   A(11,12,13)           129.9423         -DE/DX =    0.0                 !
 ! A22   A(11,12,14)            68.1302         -DE/DX =    0.0                 !
 ! A23   A(13,12,14)           115.9971         -DE/DX =    0.0                 !
 ! A24   A(13,12,15)           121.8962         -DE/DX =    0.0001              !
 ! A25   A(14,12,15)           122.0917         -DE/DX =   -0.0001              !
 ! A26   A(11,15,16)            68.4419         -DE/DX =    0.0                 !
 ! A27   A(11,15,17)           130.1619         -DE/DX =   -0.0001              !
 ! A28   A(12,15,16)           122.1065         -DE/DX =   -0.0001              !
 ! A29   A(12,15,17)           121.8851         -DE/DX =    0.0001              !
 ! A30   A(16,15,17)           115.9924         -DE/DX =    0.0                 !
 ! D1    D(5,1,2,3)            179.0339         -DE/DX =   -0.0001              !
 ! D2    D(5,1,2,6)             -2.5773         -DE/DX =    0.0                 !
 ! D3    D(9,1,2,3)              4.5858         -DE/DX =   -0.0001              !
 ! D4    D(9,1,2,6)           -177.0254         -DE/DX =    0.0                 !
 ! D5    D(2,1,9,4)             -6.9373         -DE/DX =    0.0001              !
 ! D6    D(2,1,9,10)           109.0877         -DE/DX =    0.0                 !
 ! D7    D(2,1,9,11)          -129.9156         -DE/DX =   -0.0002              !
 ! D8    D(5,1,9,4)            178.3828         -DE/DX =    0.0001              !
 ! D9    D(5,1,9,10)           -65.5922         -DE/DX =    0.0                 !
 ! D10   D(5,1,9,11)            55.4045         -DE/DX =   -0.0002              !
 ! D11   D(1,2,3,4)              0.024          -DE/DX =    0.0                 !
 ! D12   D(1,2,3,7)            178.4371         -DE/DX =    0.0                 !
 ! D13   D(6,2,3,4)           -178.4058         -DE/DX =   -0.0001              !
 ! D14   D(6,2,3,7)              0.0073         -DE/DX =    0.0                 !
 ! D15   D(2,3,4,8)           -179.0281         -DE/DX =    0.0001              !
 ! D16   D(2,3,4,9)             -4.6237         -DE/DX =    0.0001              !
 ! D17   D(7,3,4,8)              2.6            -DE/DX =    0.0                 !
 ! D18   D(7,3,4,9)            177.0045         -DE/DX =    0.0                 !
 ! D19   D(3,4,9,1)              6.9522         -DE/DX =   -0.0001              !
 ! D20   D(3,4,9,10)          -109.0742         -DE/DX =    0.0                 !
 ! D21   D(3,4,9,11)           129.8961         -DE/DX =    0.0002              !
 ! D22   D(8,4,9,1)           -178.4109         -DE/DX =   -0.0001              !
 ! D23   D(8,4,9,10)            65.5627         -DE/DX =    0.0                 !
 ! D24   D(8,4,9,11)           -55.4669         -DE/DX =    0.0002              !
 ! D25   D(1,9,11,12)           44.196          -DE/DX =    0.0001              !
 ! D26   D(1,9,11,15)           72.4245         -DE/DX =    0.0001              !
 ! D27   D(4,9,11,12)          -72.378          -DE/DX =   -0.0001              !
 ! D28   D(4,9,11,15)          -44.1495         -DE/DX =   -0.0001              !
 ! D29   D(10,9,11,12)         165.8935         -DE/DX =    0.0                 !
 ! D30   D(10,9,11,15)        -165.878          -DE/DX =    0.0                 !
 ! D31   D(9,11,12,13)         -28.3952         -DE/DX =    0.0001              !
 ! D32   D(9,11,12,14)        -134.6514         -DE/DX =    0.0001              !
 ! D33   D(9,11,15,16)         134.0586         -DE/DX =   -0.0001              !
 ! D34   D(9,11,15,17)          27.6089         -DE/DX =   -0.0001              !
 ! D35   D(13,12,15,16)       -178.5023         -DE/DX =    0.0001              !
 ! D36   D(13,12,15,17)         -0.0175         -DE/DX =    0.0                 !
 ! D37   D(14,12,15,16)          0.0358         -DE/DX =    0.0                 !
 ! D38   D(14,12,15,17)        178.5205         -DE/DX =   -0.0001              !
 --------------------------------------------------------------------------------
 GradGradGradGradGradGradGradGradGradGradGradGradGradGradGradGradGradGrad

                          Input orientation:                          
 ---------------------------------------------------------------------
 Center     Atomic      Atomic             Coordinates (Angstroms)
 Number     Number       Type             X           Y           Z
 ---------------------------------------------------------------------
      1          6           0        1.971907   -1.390803    0.199855
      2          6           0        3.317695   -1.324233    0.070737
      3          6           0        3.738716    0.085488    0.078775
      4          6           0        2.649497    0.877835    0.213324
      5          1           0        1.363243   -2.283543    0.213543
      6          1           0        3.997137   -2.162365   -0.000236
      7          1           0        4.766699    0.414487    0.014345
      8          1           0        2.630283    1.957958    0.238286
      9          6           0        1.399110    0.016011    0.189544
     10          1           0        0.855994    0.183888   -0.754999
     11          1           0        0.714290    0.215083    1.016138
     12          6           0        2.181493   -0.929349    3.055225
     13          1           0        2.894663   -1.744510    3.026277
     14          1           0        1.134616   -1.214210    3.101011
     15          6           0        2.569245    0.345392    3.062896
     16          1           0        1.858406    1.164553    3.115891
     17          1           0        3.615678    0.625435    3.040818
 ---------------------------------------------------------------------
                    Distance matrix (angstroms):
                    1          2          3          4          5
     1  C    0.000000
     2  C    1.353605   0.000000
     3  C    2.305582   1.471270   0.000000
     4  C    2.367706   2.305628   1.353630   0.000000
     5  H    1.080576   2.181869   3.357580   3.413029   0.000000
     6  H    2.176442   1.081270   2.264038   3.332350   2.645332
     7  H    3.332319   2.264054   1.081268   2.176425   4.347707
     8  H    3.413083   3.357586   2.181791   1.080582   4.426775
     9  C    1.518990   2.343361   2.343257   1.518807   2.299960
    10  H    2.153291   3.002706   3.002490   2.153106   2.698813
    11  H    2.196996   3.168753   3.169005   2.197448   2.703411
    12  C    2.900000   3.217772   3.509144   3.400197   3.252466
    13  H    2.994202   3.015096   3.570586   3.853505   3.247657
    14  H    3.024722   3.736375   4.195767   3.874307   3.087591
    15  C    3.401204   3.507256   3.215617   2.900000   4.060118
    16  H    3.878917   4.194823   3.731490   3.022073   4.534113
    17  H    3.852047   3.565303   3.013367   2.998655   4.639947
                    6          7          8          9         10
     6  H    0.000000
     7  H    2.689349   0.000000
     8  H    4.347671   2.645133   0.000000
     9  C    3.395745   3.395606   2.299852   0.000000
    10  H    3.992662   3.992328   2.698525   1.102415   0.000000
    11  H    4.178799   4.179159   2.704384   1.091726   1.777070
    12  C    3.762012   4.211429   4.058706   3.117363   4.184979
    13  H    3.248051   4.151809   4.642312   3.658301   4.708814
    14  H    4.325593   5.037081   4.527125   3.171757   4.111097
    15  C    4.208385   3.758623   3.253078   3.119913   4.187796
    16  H    5.035157   4.317448   3.083163   3.177043   4.117076
    17  H    4.143109   3.244825   3.255888   3.662558   4.713708
                   11         12         13         14         15
    11  H    0.000000
    12  C    2.760486   0.000000
    13  H    3.554530   1.083483   0.000000
    14  H    2.562469   1.085907   1.839719   0.000000
    15  C    2.765331   1.332431   2.115402   2.119427   0.000000
    16  H    2.572830   2.119550   3.089418   2.486485   1.085875
    17  H    3.561709   2.115289   2.477239   3.089269   1.083482
                   16         17
    16  H    0.000000
    17  H    1.839644   0.000000
 Stoichiometry    C7H10
 Framework group  C1[X(C7H10)]
 Deg. of freedom    45
 Full point group                 C1      NOp   1
 Largest Abelian subgroup         C1      NOp   1
 Largest concise Abelian subgroup C1      NOp   1
                         Standard orientation:                         
 ---------------------------------------------------------------------
 Center     Atomic      Atomic             Coordinates (Angstroms)
 Number     Number       Type             X           Y           Z
 ---------------------------------------------------------------------
      1          6           0       -0.793692    1.185372   -0.335690
      2          6           0       -1.119238    0.731433    0.897277
      3          6           0       -1.119089   -0.739821    0.890465
      4          6           0       -0.792932   -1.182308   -0.346523
      5          1           0       -0.724258    2.216348   -0.651778
      6          1           0       -1.323294    1.336406    1.769924
      7          1           0       -1.323127   -1.352915    1.757429
      8          1           0       -0.723300   -2.210380   -0.671910
      9          6           0       -0.663676    0.005770   -1.283827
     10          1           0       -1.509459    0.008682   -1.990906
     11          1           0        0.262871    0.009247   -1.861203
     12          6           0        2.014349    0.665590    0.169024
     13          1           0        1.847686    1.238528    1.073403
     14          1           0        2.204501    1.242055   -0.731379
     15          6           0        2.013833   -0.666841    0.169584
     16          1           0        2.204064   -1.244430   -0.730043
     17          1           0        1.846983   -1.238710    1.074604
 ---------------------------------------------------------------------
 Rotational constants (GHZ):           3.6763385           2.1800668           2.0348889

 **********************************************************************

            Population analysis using the SCF Density.

 **********************************************************************

 Orbital symmetries:
       Occupied  (A) (A) (A) (A) (A) (A) (A) (A) (A) (A) (A) (A)
                 (A) (A) (A) (A) (A) (A) (A) (A) (A) (A) (A) (A)
                 (A) (A)
       Virtual   (A) (A) (A) (A) (A) (A) (A) (A) (A) (A) (A) (A)
                 (A) (A) (A) (A) (A) (A) (A) (A) (A) (A) (A) (A)
                 (A) (A) (A) (A) (A) (A) (A) (A) (A) (A) (A) (A)
                 (A) (A) (A) (A) (A) (A) (A) (A) (A) (A) (A) (A)
                 (A) (A) (A) (A) (A) (A) (A) (A) (A)
 The electronic state is 1-A.
 Alpha  occ. eigenvalues --  -10.12253 -10.11905 -10.11877 -10.11684 -10.11567
 Alpha  occ. eigenvalues --  -10.10313 -10.10215  -0.85315  -0.74449  -0.70244
 Alpha  occ. eigenvalues --   -0.69846  -0.56379  -0.54926  -0.52607  -0.51304
 Alpha  occ. eigenvalues --   -0.45706  -0.43290  -0.40843  -0.39990  -0.37458
 Alpha  occ. eigenvalues --   -0.35742  -0.35480  -0.33910  -0.29869  -0.24391
 Alpha  occ. eigenvalues --   -0.21397
 Alpha virt. eigenvalues --   -0.00756   0.04035   0.09774   0.12470   0.15075
 Alpha virt. eigenvalues --    0.16604   0.17853   0.17974   0.19355   0.19518
 Alpha virt. eigenvalues --    0.20000   0.21830   0.22747   0.26053   0.28749
 Alpha virt. eigenvalues --    0.37799   0.38520   0.40819   0.47472   0.65304
 Alpha virt. eigenvalues --    0.66249   0.69591   0.70469   0.72433   0.73688
 Alpha virt. eigenvalues --    0.75133   0.76570   0.79172   0.80812   0.82796
 Alpha virt. eigenvalues --    0.84443   0.85462   0.86569   0.94463   0.97094
 Alpha virt. eigenvalues --    0.97558   0.99705   1.02631   1.03377   1.04635
 Alpha virt. eigenvalues --    1.06136   1.07463   1.08743   1.10594   1.11723
 Alpha virt. eigenvalues --    1.14771   1.29920   1.36567   1.36915   1.39664
 Alpha virt. eigenvalues --    1.41486   1.56691   1.58536   1.86750   1.97048
 Alpha virt. eigenvalues --    2.13738   2.15615
          Condensed to atoms (all electrons):
               1          2          3          4          5          6
     1  C    5.236796   0.524331  -0.110221  -0.114344   0.390182  -0.037384
     2  C    0.524331   5.168741   0.396452  -0.110212  -0.035617   0.387428
     3  C   -0.110221   0.396452   5.168823   0.524317   0.003973  -0.032531
     4  C   -0.114344  -0.110212   0.524317   5.236696   0.002870   0.003574
     5  H    0.390182  -0.035617   0.003973   0.002870   0.497195  -0.002100
     6  H   -0.037384   0.387428  -0.032531   0.003574  -0.002100   0.502621
     7  H    0.003575  -0.032528   0.387423  -0.037386  -0.000052  -0.000865
     8  H    0.002871   0.003973  -0.035626   0.390185  -0.000033  -0.000052
     9  C    0.334028  -0.123718  -0.123749   0.334043  -0.032653   0.004519
    10  H   -0.036549   0.001623   0.001617  -0.036567   0.000084  -0.000108
    11  H   -0.033353   0.002906   0.002905  -0.033290  -0.000519  -0.000071
    12  C    0.000298  -0.002204  -0.002894  -0.003820  -0.000590   0.000026
    13  H    0.000780   0.001138  -0.000135  -0.000020  -0.000005   0.000102
    14  H    0.000648   0.000023   0.000003  -0.000015   0.000123   0.000000
    15  C   -0.003807  -0.002902  -0.002198   0.000330  -0.000032  -0.000021
    16  H   -0.000013   0.000003   0.000020   0.000657   0.000000  -0.000000
    17  H   -0.000021  -0.000132   0.001145   0.000750   0.000000  -0.000001
               7          8          9         10         11         12
     1  C    0.003575   0.002871   0.334028  -0.036549  -0.033353   0.000298
     2  C   -0.032528   0.003973  -0.123718   0.001623   0.002906  -0.002204
     3  C    0.387423  -0.035626  -0.123749   0.001617   0.002905  -0.002894
     4  C   -0.037386   0.390185   0.334043  -0.036567  -0.033290  -0.003820
     5  H   -0.000052  -0.000033  -0.032653   0.000084  -0.000519  -0.000590
     6  H   -0.000865  -0.000052   0.004519  -0.000108  -0.000071   0.000026
     7  H    0.502615  -0.002101   0.004520  -0.000108  -0.000071  -0.000021
     8  H   -0.002101   0.497206  -0.032657   0.000084  -0.000519  -0.000032
     9  C    0.004520  -0.032657   5.403353   0.342757   0.354087  -0.006932
    10  H   -0.000108   0.000084   0.342757   0.524909  -0.023865   0.000355
    11  H   -0.000071  -0.000519   0.354087  -0.023865   0.509263   0.001723
    12  C   -0.000021  -0.000032  -0.006932   0.000355   0.001723   5.148200
    13  H   -0.000001   0.000000   0.000085  -0.000000  -0.000014   0.382400
    14  H   -0.000000   0.000000  -0.000074   0.000001   0.001010   0.380503
    15  C    0.000026  -0.000592  -0.006829   0.000353   0.001686   0.561022
    16  H    0.000000   0.000127  -0.000064   0.000001   0.000966  -0.048558
    17  H    0.000104  -0.000006   0.000085  -0.000000  -0.000012  -0.044805
              13         14         15         16         17
     1  C    0.000780   0.000648  -0.003807  -0.000013  -0.000021
     2  C    0.001138   0.000023  -0.002902   0.000003  -0.000132
     3  C   -0.000135   0.000003  -0.002198   0.000020   0.001145
     4  C   -0.000020  -0.000015   0.000330   0.000657   0.000750
     5  H   -0.000005   0.000123  -0.000032   0.000000   0.000000
     6  H    0.000102   0.000000  -0.000021  -0.000000  -0.000001
     7  H   -0.000001  -0.000000   0.000026   0.000000   0.000104
     8  H    0.000000   0.000000  -0.000592   0.000127  -0.000006
     9  C    0.000085  -0.000074  -0.006829  -0.000064   0.000085
    10  H   -0.000000   0.000001   0.000353   0.000001  -0.000000
    11  H   -0.000014   0.001010   0.001686   0.000966  -0.000012
    12  C    0.382400   0.380503   0.561022  -0.048558  -0.044805
    13  H    0.511755  -0.032419  -0.044775   0.003342  -0.005255
    14  H   -0.032419   0.530178  -0.048593  -0.005420   0.003345
    15  C   -0.044775  -0.048593   5.147852   0.380530   0.382398
    16  H    0.003342  -0.005420   0.380530   0.530047  -0.032421
    17  H   -0.005255   0.003345   0.382398  -0.032421   0.511840
 Mulliken charges:
               1
     1  C   -0.157816
     2  C   -0.179305
     3  C   -0.179323
     4  C   -0.157768
     5  H    0.177174
     6  H    0.174862
     7  H    0.174869
     8  H    0.177171
     9  C   -0.450803
    10  H    0.225414
    11  H    0.217170
    12  C   -0.364673
    13  H    0.183019
    14  H    0.170689
    15  C   -0.364450
    16  H    0.170784
    17  H    0.182986
 Sum of Mulliken charges =  -0.00000
 Mulliken charges with hydrogens summed into heavy atoms:
               1
     1  C    0.019358
     2  C   -0.004443
     3  C   -0.004454
     4  C    0.019403
     9  C   -0.008220
    12  C   -0.010965
    15  C   -0.010680
 Electronic spatial extent (au):  <R**2>=            755.0027
 Charge=             -0.0000 electrons
 Dipole moment (field-independent basis, Debye):
    X=             -0.3671    Y=              0.0013    Z=             -0.4548  Tot=              0.5845
 Quadrupole moment (field-independent basis, Debye-Ang):
   XX=            -48.6201   YY=            -40.2532   ZZ=            -39.6023
   XY=              0.0025   XZ=             -1.2315   YZ=             -0.0042
 Traceless Quadrupole moment (field-independent basis, Debye-Ang):
   XX=             -5.7949   YY=              2.5720   ZZ=              3.2229
   XY=              0.0025   XZ=             -1.2315   YZ=             -0.0042
 Octapole moment (field-independent basis, Debye-Ang**2):
  XXX=             -5.0534  YYY=             -0.0006  ZZZ=              1.5099  XYY=              0.5302
  XXY=             -0.0028  XXZ=             -2.7288  XZZ=             -2.1748  YZZ=             -0.0067
  YYZ=             -0.0237  XYZ=              0.0117
 Hexadecapole moment (field-independent basis, Debye-Ang**3):
 XXXX=           -601.8412 YYYY=           -253.0294 ZZZZ=           -215.6324 XXXY=             -0.0089
 XXXZ=             -7.1372 YYYX=              0.0207 YYYZ=              0.0181 ZZZX=             -4.3593
 ZZZY=              0.0158 XXYY=           -133.9536 XXZZ=           -117.7165 YYZZ=            -75.6755
 XXYZ=             -0.0394 YYXZ=             -2.6328 ZZXY=              0.0011
 N-N= 2.808287807040D+02 E-N=-1.188989273368D+03  KE= 2.687645685566D+02
 1\1\GINC-TACHAS\FOpt\RB3LYP\3-21G\C7H10\LEOS\20-Oct-2019\0\\# opt=modr
 edundant b3lyp/3-21g geom=connectivity\\Title Card Required\\0,1\C,1.9
 719073586,-1.3908034785,0.1998552537\C,3.3176947009,-1.3242327675,0.07
 07365764\C,3.7387157866,0.0854882578,0.0787749779\C,2.6494974837,0.877
 8350485,0.2133237221\H,1.3632431786,-2.2835433975,0.2135426393\H,3.997
 1373039,-2.1623646121,-0.0002362845\H,4.7666992487,0.4144865187,0.0143
 446091\H,2.6302825168,1.9579578112,0.2382855138\C,1.3991095869,0.01601
 14942,0.1895441912\H,0.8559936068,0.183888438,-0.7549986787\H,0.714289
 988,0.2150827891,1.0161381034\C,2.1814932041,-0.9293486383,3.055224558
 \H,2.8946627225,-1.7445096461,3.0262765754\H,1.1346160496,-1.214210223
 2,3.1010107075\C,2.5692446055,0.3453919918,3.0628962008\H,1.8584058818
 ,1.1645532981,3.1158906536\H,3.6156778971,0.6254350558,3.0408179808\\V
 ersion=ES64L-G16RevB.01\State=1-A\HF=-271.1927103\RMSD=2.991e-09\RMSF=
 1.336e-03\Dipole=-0.1477646,0.045418,-0.170248\Quadrupole=2.4662096,1.
 9616028,-4.4278124,-0.1658234,0.1520042,-0.0073046\PG=C01 [X(C7H10)]\\
 @


 ... THE UNIVERSE IS NOT ONLY QUEERER THAN WE SUPPOSE,
 BUT QUEERER THAN WE CAN SUPPOSE ... 

                                   -- J. B. S. HALDANE
 Job cpu time:       0 days  0 hours  5 minutes 42.0 seconds.
 Elapsed time:       0 days  0 hours  2 minutes 51.9 seconds.
 File lengths (MBytes):  RWF=     10 Int=      0 D2E=      0 Chk=      2 Scr=      1
 Normal termination of Gaussian 16 at Sun Oct 20 18:41:57 2019.
