 Entering Gaussian System, Link 0=g16
 Input=C3.0.com
 Output=C3.0.log
 Initial command:
 /opt/g16/l1.exe "/tmp/Gau-1673.inp" -scrdir="/tmp/"
 Entering Link 1 = /opt/g16/l1.exe PID=      1675.
  
 Copyright (c) 1988-2017, Gaussian, Inc.  All Rights Reserved.
  
 This is part of the Gaussian(R) 16 program.  It is based on
 the Gaussian(R) 09 system (copyright 2009, Gaussian, Inc.),
 the Gaussian(R) 03 system (copyright 2003, Gaussian, Inc.),
 the Gaussian(R) 98 system (copyright 1998, Gaussian, Inc.),
 the Gaussian(R) 94 system (copyright 1995, Gaussian, Inc.),
 the Gaussian 92(TM) system (copyright 1992, Gaussian, Inc.),
 the Gaussian 90(TM) system (copyright 1990, Gaussian, Inc.),
 the Gaussian 88(TM) system (copyright 1988, Gaussian, Inc.),
 the Gaussian 86(TM) system (copyright 1986, Carnegie Mellon
 University), and the Gaussian 82(TM) system (copyright 1983,
 Carnegie Mellon University). Gaussian is a federally registered
 trademark of Gaussian, Inc.
  
 This software contains proprietary and confidential information,
 including trade secrets, belonging to Gaussian, Inc.
  
 This software is provided under written license and may be
 used, copied, transmitted, or stored only in accord with that
 written license.
  
 The following legend is applicable only to US Government
 contracts under FAR:
  
                    RESTRICTED RIGHTS LEGEND
  
 Use, reproduction and disclosure by the US Government is
 subject to restrictions as set forth in subparagraphs (a)
 and (c) of the Commercial Computer Software - Restricted
 Rights clause in FAR 52.227-19.
  
 Gaussian, Inc.
 340 Quinnipiac St., Bldg. 40, Wallingford CT 06492
  
  
 ---------------------------------------------------------------
 Warning -- This program may not be used in any manner that
 competes with the business of Gaussian, Inc. or will provide
 assistance to any competitor of Gaussian, Inc.  The licensee
 of this program is prohibited from giving any competitor of
 Gaussian, Inc. access to this program.  By using this program,
 the user acknowledges that Gaussian, Inc. is engaged in the
 business of creating and licensing software in the field of
 computational chemistry and represents and warrants to the
 licensee that it is not a competitor of Gaussian, Inc. and that
 it will not use this program in any manner prohibited above.
 ---------------------------------------------------------------
  

 Cite this work as:
 Gaussian 16, Revision B.01,
 M. J. Frisch, G. W. Trucks, H. B. Schlegel, G. E. Scuseria, 
 M. A. Robb, J. R. Cheeseman, G. Scalmani, V. Barone, 
 G. A. Petersson, H. Nakatsuji, X. Li, M. Caricato, A. V. Marenich, 
 J. Bloino, B. G. Janesko, R. Gomperts, B. Mennucci, H. P. Hratchian, 
 J. V. Ortiz, A. F. Izmaylov, J. L. Sonnenberg, D. Williams-Young, 
 F. Ding, F. Lipparini, F. Egidi, J. Goings, B. Peng, A. Petrone, 
 T. Henderson, D. Ranasinghe, V. G. Zakrzewski, J. Gao, N. Rega, 
 G. Zheng, W. Liang, M. Hada, M. Ehara, K. Toyota, R. Fukuda, 
 J. Hasegawa, M. Ishida, T. Nakajima, Y. Honda, O. Kitao, H. Nakai, 
 T. Vreven, K. Throssell, J. A. Montgomery, Jr., J. E. Peralta, 
 F. Ogliaro, M. J. Bearpark, J. J. Heyd, E. N. Brothers, K. N. Kudin, 
 V. N. Staroverov, T. A. Keith, R. Kobayashi, J. Normand, 
 K. Raghavachari, A. P. Rendell, J. C. Burant, S. S. Iyengar, 
 J. Tomasi, M. Cossi, J. M. Millam, M. Klene, C. Adamo, R. Cammi, 
 J. W. Ochterski, R. L. Martin, K. Morokuma, O. Farkas, 
 J. B. Foresman, and D. J. Fox, Gaussian, Inc., Wallingford CT, 2016.
 
 ******************************************
 Gaussian 16:  ES64L-G16RevB.01 20-Dec-2017
                20-Oct-2019 
 ******************************************
 %nprocshared=2
 Will use up to    2 processors via shared memory.
 %mem=6GB
 %chk=C3.chk
 ------------------------------------------------
 # opt=modredundant b3lyp/3-21g geom=connectivity
 ------------------------------------------------
 1/18=120,19=15,26=3,38=1,57=2/1,3;
 2/9=110,12=2,17=6,18=5,40=1/2;
 3/5=5,11=2,25=1,30=1,71=1,74=-5/1,2,3;
 4//1;
 5/5=2,38=5/2;
 6/7=2,8=2,9=2,10=2,28=1/1;
 7//1,2,3,16;
 1/18=20,19=15,26=3/3(2);
 2/9=110/2;
 99//99;
 2/9=110/2;
 3/5=5,11=2,25=1,30=1,71=1,74=-5/1,2,3;
 4/5=5,16=3,69=1/1;
 5/5=2,38=5/2;
 7//1,2,3,16;
 1/18=20,19=15,26=3/3(-5);
 2/9=110/2;
 6/7=2,8=2,9=2,10=2,19=2,28=1/1;
 99/9=1/99;
 -------------------
 Title Card Required
 -------------------
 Symbolic Z-matrix:
 Charge =  0 Multiplicity = 1
 C                     1.91428  -1.31213   0.01839 
 C                     3.31603  -1.31213   0.01839 
 C                     3.74002   0.05867   0.01839 
 C                     2.58297   0.85012   0.01829 
 H                     1.21269  -2.14536   0.01849 
 H                     3.9604   -2.18483   0.01842 
 H                     4.76459   0.41516   0.01837 
 H                     2.47405   1.93389   0.01814 
 C                     1.47455   0.00838   0.01838 
 H                     0.8843    0.19084  -0.85523 
 H                     0.88443   0.19095   0.89207 
 C                     2.19796  -1.01681   2.99031 
 H                     2.99869  -1.72739   3.46377 
 H                     1.21011  -1.24598   3.46585 
 C                     2.59073   0.41323   2.9863 
 H                     1.83702   1.0986    3.48658 
 H                     3.6256    0.61719   3.4845 
 
 Add virtual bond connecting atoms C12        and H11        Dist= 5.21D+00.
 Add virtual bond connecting atoms C15        and H11        Dist= 5.12D+00.
 The following ModRedundant input section has been read:
 B       4      15 F                                                           
 B       1      12 F                                                           
 

 GradGradGradGradGradGradGradGradGradGradGradGradGradGradGradGradGradGrad
 Berny optimization.
 Initialization pass.
                           ----------------------------
                           !    Initial Parameters    !
                           ! (Angstroms and Degrees)  !
 --------------------------                            --------------------------
 ! Name  Definition              Value          Derivative Info.                !
 --------------------------------------------------------------------------------
 ! R1    R(1,2)                  1.4018         estimate D2E/DX2                !
 ! R2    R(1,5)                  1.0893         estimate D2E/DX2                !
 ! R3    R(1,9)                  1.3918         estimate D2E/DX2                !
 ! R4    R(1,12)                 3.0            Frozen                          !
 ! R5    R(2,3)                  1.4349         estimate D2E/DX2                !
 ! R6    R(2,6)                  1.0848         estimate D2E/DX2                !
 ! R7    R(3,4)                  1.4018         estimate D2E/DX2                !
 ! R8    R(3,7)                  1.0848         estimate D2E/DX2                !
 ! R9    R(4,8)                  1.0892         estimate D2E/DX2                !
 ! R10   R(4,9)                  1.3918         estimate D2E/DX2                !
 ! R11   R(4,15)                 3.0            Frozen                          !
 ! R12   R(9,10)                 1.07           estimate D2E/DX2                !
 ! R13   R(9,11)                 1.07           estimate D2E/DX2                !
 ! R14   R(11,12)                2.7544         estimate D2E/DX2                !
 ! R15   R(11,15)                2.7105         estimate D2E/DX2                !
 ! R16   R(12,13)                1.1706         estimate D2E/DX2                !
 ! R17   R(12,14)                1.12           estimate D2E/DX2                !
 ! R18   R(12,15)                1.483          estimate D2E/DX2                !
 ! R19   R(15,16)                1.1349         estimate D2E/DX2                !
 ! R20   R(15,17)                1.1665         estimate D2E/DX2                !
 ! A1    A(2,1,5)              130.0976         estimate D2E/DX2                !
 ! A2    A(2,1,9)              108.4177         estimate D2E/DX2                !
 ! A3    A(5,1,9)              121.4847         estimate D2E/DX2                !
 ! A4    A(1,2,3)              107.1873         estimate D2E/DX2                !
 ! A5    A(1,2,6)              126.4408         estimate D2E/DX2                !
 ! A6    A(3,2,6)              126.372          estimate D2E/DX2                !
 ! A7    A(2,3,4)              107.1858         estimate D2E/DX2                !
 ! A8    A(2,3,7)              126.3724         estimate D2E/DX2                !
 ! A9    A(4,3,7)              126.4419         estimate D2E/DX2                !
 ! A10   A(3,4,8)              130.1121         estimate D2E/DX2                !
 ! A11   A(3,4,9)              108.4137         estimate D2E/DX2                !
 ! A12   A(8,4,9)              121.4742         estimate D2E/DX2                !
 ! A13   A(1,9,4)              108.7956         estimate D2E/DX2                !
 ! A14   A(1,9,10)             109.6383         estimate D2E/DX2                !
 ! A15   A(1,9,11)             109.6412         estimate D2E/DX2                !
 ! A16   A(4,9,10)             109.6414         estimate D2E/DX2                !
 ! A17   A(4,9,11)             109.6385         estimate D2E/DX2                !
 ! A18   A(10,9,11)            109.4712         estimate D2E/DX2                !
 ! A19   A(9,11,12)            106.5103         estimate D2E/DX2                !
 ! A20   A(9,11,15)            107.3186         estimate D2E/DX2                !
 ! A21   A(11,12,13)           154.2237         estimate D2E/DX2                !
 ! A22   A(11,12,14)            89.5731         estimate D2E/DX2                !
 ! A23   A(13,12,14)           107.9017         estimate D2E/DX2                !
 ! A24   A(13,12,15)           113.9087         estimate D2E/DX2                !
 ! A25   A(14,12,15)           115.5972         estimate D2E/DX2                !
 ! A26   A(11,15,16)            88.3981         estimate D2E/DX2                !
 ! A27   A(11,15,17)           154.5285         estimate D2E/DX2                !
 ! A28   A(12,15,16)           113.9058         estimate D2E/DX2                !
 ! A29   A(12,15,17)           113.7285         estimate D2E/DX2                !
 ! A30   A(16,15,17)           107.1756         estimate D2E/DX2                !
 ! D1    D(5,1,2,3)           -179.9933         estimate D2E/DX2                !
 ! D2    D(5,1,2,6)              0.0051         estimate D2E/DX2                !
 ! D3    D(9,1,2,3)              0.0004         estimate D2E/DX2                !
 ! D4    D(9,1,2,6)            179.9987         estimate D2E/DX2                !
 ! D5    D(2,1,9,4)              0.0039         estimate D2E/DX2                !
 ! D6    D(2,1,9,10)           119.9009         estimate D2E/DX2                !
 ! D7    D(2,1,9,11)          -119.8913         estimate D2E/DX2                !
 ! D8    D(5,1,9,4)            179.9982         estimate D2E/DX2                !
 ! D9    D(5,1,9,10)           -60.1048         estimate D2E/DX2                !
 ! D10   D(5,1,9,11)            60.103          estimate D2E/DX2                !
 ! D11   D(1,2,3,4)             -0.0044         estimate D2E/DX2                !
 ! D12   D(1,2,3,7)           -179.9984         estimate D2E/DX2                !
 ! D13   D(6,2,3,4)            179.9972         estimate D2E/DX2                !
 ! D14   D(6,2,3,7)              0.0033         estimate D2E/DX2                !
 ! D15   D(2,3,4,8)           -179.9922         estimate D2E/DX2                !
 ! D16   D(2,3,4,9)              0.0069         estimate D2E/DX2                !
 ! D17   D(7,3,4,8)              0.0017         estimate D2E/DX2                !
 ! D18   D(7,3,4,9)           -179.9992         estimate D2E/DX2                !
 ! D19   D(3,4,9,1)             -0.0067         estimate D2E/DX2                !
 ! D20   D(3,4,9,10)          -119.9018         estimate D2E/DX2                !
 ! D21   D(3,4,9,11)           119.8901         estimate D2E/DX2                !
 ! D22   D(8,4,9,1)            179.9924         estimate D2E/DX2                !
 ! D23   D(8,4,9,10)            60.0973         estimate D2E/DX2                !
 ! D24   D(8,4,9,11)           -60.1107         estimate D2E/DX2                !
 ! D25   D(1,9,11,12)           42.8302         estimate D2E/DX2                !
 ! D26   D(1,9,11,15)           75.7611         estimate D2E/DX2                !
 ! D27   D(4,9,11,12)          -76.5486         estimate D2E/DX2                !
 ! D28   D(4,9,11,15)          -43.6177         estimate D2E/DX2                !
 ! D29   D(10,9,11,12)         163.1398         estimate D2E/DX2                !
 ! D30   D(10,9,11,15)        -163.9293         estimate D2E/DX2                !
 ! D31   D(9,11,12,13)         -12.8439         estimate D2E/DX2                !
 ! D32   D(9,11,12,14)        -146.5889         estimate D2E/DX2                !
 ! D33   D(9,11,15,16)         151.3619         estimate D2E/DX2                !
 ! D34   D(9,11,15,17)          22.4435         estimate D2E/DX2                !
 ! D35   D(13,12,15,16)       -124.9121         estimate D2E/DX2                !
 ! D36   D(13,12,15,17)         -1.7041         estimate D2E/DX2                !
 ! D37   D(14,12,15,16)          0.9053         estimate D2E/DX2                !
 ! D38   D(14,12,15,17)        124.1134         estimate D2E/DX2                !
 --------------------------------------------------------------------------------
 Trust Radius=3.00D-01 FncErr=1.00D-07 GrdErr=1.00D-06 EigMax=2.50D+02 EigMin=1.00D-04
 Number of steps in this run=     98 maximum allowed number of steps=    102.
 GradGradGradGradGradGradGradGradGradGradGradGradGradGradGradGradGradGrad

                          Input orientation:                          
 ---------------------------------------------------------------------
 Center     Atomic      Atomic             Coordinates (Angstroms)
 Number     Number       Type             X           Y           Z
 ---------------------------------------------------------------------
      1          6           0        1.914276   -1.312128    0.018394
      2          6           0        3.316026   -1.312128    0.018394
      3          6           0        3.740024    0.058668    0.018394
      4          6           0        2.582967    0.850121    0.018290
      5          1           0        1.212688   -2.145361    0.018492
      6          1           0        3.960399   -2.184834    0.018419
      7          1           0        4.764587    0.415160    0.018369
      8          1           0        2.474045    1.933893    0.018143
      9          6           0        1.474549    0.008380    0.018385
     10          1           0        0.884296    0.190842   -0.855234
     11          1           0        0.884427    0.190951    0.892069
     12          6           0        2.197956   -1.016810    2.990314
     13          1           0        2.998686   -1.727388    3.463766
     14          1           0        1.210108   -1.245980    3.465854
     15          6           0        2.590728    0.413227    2.986296
     16          1           0        1.837021    1.098595    3.486585
     17          1           0        3.625600    0.617187    3.484497
 ---------------------------------------------------------------------
                    Distance matrix (angstroms):
                    1          2          3          4          5
     1  C    0.000000
     2  C    1.401750   0.000000
     3  C    2.283076   1.434871   0.000000
     4  C    2.263287   2.283133   1.401848   0.000000
     5  H    1.089267   2.262368   3.353382   3.294021   0.000000
     6  H    2.224463   1.084819   2.254300   3.332907   2.747995
     7  H    3.332836   2.254297   1.084811   2.224558   4.378613
     8  H    3.293933   3.353444   2.262559   1.089232   4.269817
     9  C    1.391798   2.266005   2.266033   1.391804   2.169602
    10  H    2.020644   2.989223   2.989294   2.020687   2.515767
    11  H    2.020679   2.989185   2.989187   2.020652   2.515799
    12  C    3.000000   3.188982   3.516666   3.530807   3.328079
    13  H    3.635791   3.484786   3.950971   4.322925   3.903128
    14  H    3.519263   4.040328   4.470745   4.261934   3.562751
    15  C    3.498983   3.508754   3.202349   3.000000   4.153701
    16  H    4.224441   4.475197   4.090381   3.556296   4.789646
    17  H    4.320273   3.978940   3.512678   3.627111   5.046485
                    6          7          8          9         10
     6  H    0.000000
     7  H    2.721523   0.000000
     8  H    4.378717   2.748296   0.000000
     9  C    3.315062   3.315090   2.169468   0.000000
    10  H    3.983656   3.983736   2.515614   1.070000   0.000000
    11  H    3.983619   3.983624   2.515647   1.070000   1.747303
    12  C    3.647280   4.179784   4.197223   3.225941   4.239383
    13  H    3.606184   4.424893   5.054953   4.148076   5.177259
    14  H    4.508920   5.222917   4.857555   3.678096   4.565349
    15  C    4.175430   3.678894   3.337061   3.196601   4.209361
    16  H    5.226645   4.589798   3.624032   3.653542   4.536859
    17  H    4.469576   3.654060   3.882706   4.124512   5.150706
                   11         12         13         14         15
    11  H    0.000000
    12  C    2.754393   0.000000
    13  H    3.842362   1.170575   0.000000
    14  H    2.965672   1.120045   1.852234   0.000000
    15  C    2.710472   1.483001   2.230839   2.211121   0.000000
    16  H    2.909083   2.202611   3.055514   2.427032   1.134941
    17  H    3.796892   2.225383   2.427032   3.050630   1.166517
                   16         17
    16  H    0.000000
    17  H    1.852234   0.000000
 Stoichiometry    C7H10
 Framework group  C1[X(C7H10)]
 Deg. of freedom    45
 Full point group                 C1      NOp   1
 Largest Abelian subgroup         C1      NOp   1
 Largest concise Abelian subgroup C1      NOp   1
                         Standard orientation:                         
 ---------------------------------------------------------------------
 Center     Atomic      Atomic             Coordinates (Angstroms)
 Number     Number       Type             X           Y           Z
 ---------------------------------------------------------------------
      1          6           0       -0.910143    1.119875   -0.404769
      2          6           0       -1.023991    0.764484    0.946393
      3          6           0       -1.043439   -0.668949    1.007596
      4          6           0       -0.940913   -1.141147   -0.308343
      5          1           0       -0.862174    2.103715   -0.869807
      6          1           0       -1.085845    1.445260    1.788741
      7          1           0       -1.122779   -1.273536    1.904812
      8          1           0       -0.920362   -2.161835   -0.688079
      9          6           0       -0.859998   -0.045933   -1.163372
     10          1           0       -1.680743   -0.063996   -1.849631
     11          1           0        0.060673   -0.081692   -1.707419
     12          6           0        2.031971    0.732436    0.035528
     13          1           0        2.431025    1.211991    1.025997
     14          1           0        2.583636    1.199781   -0.819899
     15          6           0        2.011703   -0.750343    0.051288
     16          1           0        2.579018   -1.227219   -0.808267
     17          1           0        2.426407   -1.215009    1.037629
 ---------------------------------------------------------------------
 Rotational constants (GHZ):           3.7316243           2.0583103           1.9409883
 Standard basis: 3-21G (6D, 7F)
 There are    83 symmetry adapted cartesian basis functions of A   symmetry.
 There are    83 symmetry adapted basis functions of A   symmetry.
    83 basis functions,   135 primitive gaussians,    83 cartesian basis functions
    26 alpha electrons       26 beta electrons
       nuclear repulsion energy       278.4575570458 Hartrees.
 NAtoms=   17 NActive=   17 NUniq=   17 SFac= 1.00D+00 NAtFMM=   60 NAOKFM=F Big=F
 Integral buffers will be    131072 words long.
 Raffenetti 2 integral format.
 Two-electron integral symmetry is turned on.
 One-electron integrals computed using PRISM.
 NBasis=    83 RedAO= T EigKep=  4.13D-03  NBF=    83
 NBsUse=    83 1.00D-06 EigRej= -1.00D+00 NBFU=    83
 ExpMin= 1.83D-01 ExpMax= 1.72D+02 ExpMxC= 1.72D+02 IAcc=3 IRadAn=         5 AccDes= 0.00D+00
 Harris functional with IExCor=  402 and IRadAn=       5 diagonalized for initial guess.
 HarFok:  IExCor=  402 AccDes= 0.00D+00 IRadAn=         5 IDoV= 1 UseB2=F ITyADJ=14
 ICtDFT=  3500011 ScaDFX=  1.000000  1.000000  1.000000  1.000000
 FoFCou: FMM=F IPFlag=           0 FMFlag=      100000 FMFlg1=           0
         NFxFlg=           0 DoJE=T BraDBF=F KetDBF=T FulRan=T
         wScrn=  0.000000 ICntrl=       500 IOpCl=  0 I1Cent=   200000004 NGrid=           0
         NMat0=    1 NMatS0=      1 NMatT0=    0 NMatD0=    1 NMtDS0=    0 NMtDT0=    0
 Petite list used in FoFCou.
 Keep R1 ints in memory in canonical form, NReq=7891700.
 Requested convergence on RMS density matrix=1.00D-08 within 128 cycles.
 Requested convergence on MAX density matrix=1.00D-06.
 Requested convergence on             energy=1.00D-06.
 No special actions if energy rises.
 Integral accuracy reduced to 1.0D-05 until final iterations.
 Initial convergence to 1.0D-05 achieved.  Increase integral accuracy.
 SCF Done:  E(RB3LYP) =  -271.098084577     A.U. after   14 cycles
            NFock= 14  Conv=0.62D-08     -V/T= 2.0094

 **********************************************************************

            Population analysis using the SCF Density.

 **********************************************************************

 Orbital symmetries:
       Occupied  (A) (A) (A) (A) (A) (A) (A) (A) (A) (A) (A) (A)
                 (A) (A) (A) (A) (A) (A) (A) (A) (A) (A) (A) (A)
                 (A) (A)
       Virtual   (A) (A) (A) (A) (A) (A) (A) (A) (A) (A) (A) (A)
                 (A) (A) (A) (A) (A) (A) (A) (A) (A) (A) (A) (A)
                 (A) (A) (A) (A) (A) (A) (A) (A) (A) (A) (A) (A)
                 (A) (A) (A) (A) (A) (A) (A) (A) (A) (A) (A) (A)
                 (A) (A) (A) (A) (A) (A) (A) (A) (A)
 The electronic state is 1-A.
 Alpha  occ. eigenvalues --  -10.13208 -10.13064 -10.11841 -10.11729 -10.11497
 Alpha  occ. eigenvalues --  -10.11468 -10.09955  -0.87872  -0.71831  -0.71638
 Alpha  occ. eigenvalues --   -0.69383  -0.55307  -0.54018  -0.53954  -0.51615
 Alpha  occ. eigenvalues --   -0.46119  -0.42146  -0.38865  -0.37969  -0.37495
 Alpha  occ. eigenvalues --   -0.37141  -0.36123  -0.32241  -0.29003  -0.22401
 Alpha  occ. eigenvalues --   -0.20531
 Alpha virt. eigenvalues --   -0.03140  -0.00851   0.09019   0.11861   0.13945
 Alpha virt. eigenvalues --    0.14213   0.18335   0.18489   0.19290   0.20052
 Alpha virt. eigenvalues --    0.20253   0.21852   0.25737   0.26280   0.26537
 Alpha virt. eigenvalues --    0.31042   0.39154   0.42596   0.47856   0.66674
 Alpha virt. eigenvalues --    0.67966   0.70586   0.71220   0.71584   0.75920
 Alpha virt. eigenvalues --    0.76507   0.77676   0.79948   0.81541   0.84316
 Alpha virt. eigenvalues --    0.85321   0.87197   0.90978   0.94799   0.96305
 Alpha virt. eigenvalues --    0.97015   0.99075   0.99523   1.02937   1.03702
 Alpha virt. eigenvalues --    1.03819   1.05580   1.06016   1.07429   1.10056
 Alpha virt. eigenvalues --    1.10690   1.17258   1.32053   1.33517   1.39072
 Alpha virt. eigenvalues --    1.39643   1.56118   1.67247   1.82662   1.96048
 Alpha virt. eigenvalues --    2.09624   2.25243
          Condensed to atoms (all electrons):
               1          2          3          4          5          6
     1  C    5.265735   0.532871  -0.118277  -0.141850   0.393200  -0.033585
     2  C    0.532871   5.158376   0.411340  -0.118001  -0.024164   0.387262
     3  C   -0.118277   0.411340   5.158533   0.533265   0.003268  -0.033025
     4  C   -0.141850  -0.118001   0.533265   5.263672   0.004814   0.003757
     5  H    0.393200  -0.024164   0.003268   0.004814   0.492111  -0.001463
     6  H   -0.033585   0.387262  -0.033025   0.003757  -0.001463   0.498363
     7  H    0.003761  -0.033074   0.387309  -0.033561  -0.000047  -0.001014
     8  H    0.004814   0.003267  -0.024137   0.393202  -0.000063  -0.000047
     9  C    0.307458  -0.143092  -0.142904   0.307469  -0.045806   0.005152
    10  H   -0.045177   0.003186   0.003197  -0.045329  -0.001096  -0.000114
    11  H   -0.043059   0.002396   0.002421  -0.043008  -0.001216  -0.000108
    12  C    0.015607   0.001908  -0.003948  -0.004881  -0.000176   0.000033
    13  H   -0.000487  -0.000364   0.000033   0.000067  -0.000005   0.000033
    14  H   -0.000372  -0.000049   0.000057   0.000119   0.000041   0.000001
    15  C   -0.005313  -0.004177   0.001839   0.015671  -0.000034  -0.000006
    16  H    0.000134   0.000061  -0.000029  -0.000324  -0.000000   0.000000
    17  H    0.000080   0.000040  -0.000405  -0.000543   0.000000  -0.000001
               7          8          9         10         11         12
     1  C    0.003761   0.004814   0.307458  -0.045177  -0.043059   0.015607
     2  C   -0.033074   0.003267  -0.143092   0.003186   0.002396   0.001908
     3  C    0.387309  -0.024137  -0.142904   0.003197   0.002421  -0.003948
     4  C   -0.033561   0.393202   0.307469  -0.045329  -0.043008  -0.004881
     5  H   -0.000047  -0.000063  -0.045806  -0.001096  -0.001216  -0.000176
     6  H   -0.001014  -0.000047   0.005152  -0.000114  -0.000108   0.000033
     7  H    0.498458  -0.001463   0.005153  -0.000114  -0.000108  -0.000004
     8  H   -0.001463   0.491758  -0.045761  -0.001097  -0.001233  -0.000030
     9  C    0.005153  -0.045761   5.598045   0.344053   0.336909  -0.005649
    10  H   -0.000114  -0.001097   0.344053   0.511112  -0.014669   0.000250
    11  H   -0.000108  -0.001233   0.336909  -0.014669   0.485204   0.005527
    12  C   -0.000004  -0.000030  -0.005649   0.000250   0.005527   5.291232
    13  H   -0.000001   0.000000   0.000059  -0.000001   0.000046   0.361322
    14  H    0.000000  -0.000000  -0.000163   0.000004   0.000088   0.357968
    15  C    0.000032  -0.000190  -0.006454   0.000275   0.006721   0.444391
    16  H    0.000001   0.000032  -0.000236   0.000005   0.000137  -0.045959
    17  H    0.000025  -0.000004   0.000072  -0.000001   0.000041  -0.041795
              13         14         15         16         17
     1  C   -0.000487  -0.000372  -0.005313   0.000134   0.000080
     2  C   -0.000364  -0.000049  -0.004177   0.000061   0.000040
     3  C    0.000033   0.000057   0.001839  -0.000029  -0.000405
     4  C    0.000067   0.000119   0.015671  -0.000324  -0.000543
     5  H   -0.000005   0.000041  -0.000034  -0.000000   0.000000
     6  H    0.000033   0.000001  -0.000006   0.000000  -0.000001
     7  H   -0.000001   0.000000   0.000032   0.000001   0.000025
     8  H    0.000000  -0.000000  -0.000190   0.000032  -0.000004
     9  C    0.000059  -0.000163  -0.006454  -0.000236   0.000072
    10  H   -0.000001   0.000004   0.000275   0.000005  -0.000001
    11  H    0.000046   0.000088   0.006721   0.000137   0.000041
    12  C    0.361322   0.357968   0.444391  -0.045959  -0.041795
    13  H    0.559663  -0.041721  -0.041633   0.003797  -0.005267
    14  H   -0.041721   0.553714  -0.044544  -0.004283   0.003724
    15  C   -0.041633  -0.044544   5.295189   0.355878   0.361699
    16  H    0.003797  -0.004283   0.355878   0.563524  -0.042335
    17  H   -0.005267   0.003724   0.361699  -0.042335   0.558723
 Mulliken charges:
               1
     1  C   -0.135539
     2  C   -0.177784
     3  C   -0.178537
     4  C   -0.134541
     5  H    0.180636
     6  H    0.174762
     7  H    0.174646
     8  H    0.180954
     9  C   -0.514303
    10  H    0.245515
    11  H    0.263911
    12  C   -0.375795
    13  H    0.164458
    14  H    0.175416
    15  C   -0.379343
    16  H    0.169598
    17  H    0.165947
 Sum of Mulliken charges =   0.00000
 Mulliken charges with hydrogens summed into heavy atoms:
               1
     1  C    0.045097
     2  C   -0.003022
     3  C   -0.003891
     4  C    0.046413
     9  C   -0.004877
    12  C   -0.035922
    15  C   -0.043799
 Electronic spatial extent (au):  <R**2>=            787.6953
 Charge=              0.0000 electrons
 Dipole moment (field-independent basis, Debye):
    X=              0.3263    Y=              0.0198    Z=             -0.6577  Tot=              0.7344
 Quadrupole moment (field-independent basis, Debye-Ang):
   XX=            -43.8937   YY=            -42.1043   ZZ=            -39.5262
   XY=              0.1625   XZ=              0.4579   YZ=              0.0512
 Traceless Quadrupole moment (field-independent basis, Debye-Ang):
   XX=             -2.0524   YY=             -0.2629   ZZ=              2.3152
   XY=              0.1625   XZ=              0.4579   YZ=              0.0512
 Octapole moment (field-independent basis, Debye-Ang**2):
  XXX=             12.0512  YYY=              0.0582  ZZZ=              1.4825  XYY=             -0.9706
  XXY=             -0.0931  XXZ=             -2.6372  XZZ=             -1.9539  YZZ=              0.2001
  YYZ=             -0.7650  XYZ=             -0.1479
 Hexadecapole moment (field-independent basis, Debye-Ang**3):
 XXXX=           -601.0527 YYYY=           -258.2099 ZZZZ=           -214.2135 XXXY=              0.8536
 XXXZ=              5.9618 YYYX=              0.6888 YYYZ=              0.3527 ZZZX=             -1.0519
 ZZZY=             -0.4867 XXYY=           -138.6243 XXZZ=           -123.7062 YYZZ=            -73.5241
 XXYZ=              0.0677 YYXZ=              0.1670 ZZXY=              0.1092
 N-N= 2.784575570458D+02 E-N=-1.184002960200D+03  KE= 2.685693521947D+02
 Calling FoFJK, ICntrl=      2127 FMM=F ISym2X=0 I1Cent= 0 IOpClX= 0 NMat=1 NMatS=1 NMatT=0.
 ***** Axes restored to original set *****
 -------------------------------------------------------------------
 Center     Atomic                   Forces (Hartrees/Bohr)
 Number     Number              X              Y              Z
 -------------------------------------------------------------------
      1        6           0.050615016   -0.080311146    0.006607845
      2        6          -0.029660959   -0.018660540   -0.003033939
      3        6          -0.014083068    0.032294960   -0.003191971
      4        6           0.087351830    0.037514510    0.006922906
      5        1           0.010152354   -0.000211455   -0.000499389
      6        1          -0.001680274    0.003324715    0.000235882
      7        1          -0.003256921   -0.001799746    0.000252085
      8        1           0.008508032   -0.005555081   -0.000415394
      9        6          -0.068415060    0.020847136   -0.004073533
     10        1          -0.020333121    0.006223008   -0.016163334
     11        1          -0.017958870    0.005627295    0.013859468
     12        6           0.040636776    0.064590111    0.064300149
     13        1          -0.022750262    0.018651596   -0.037567742
     14        1           0.006114260    0.002584429   -0.028074775
     15        6          -0.008025704   -0.072777191    0.070673082
     16        1           0.009008900   -0.007942213   -0.031557536
     17        1          -0.026222930   -0.004400388   -0.038273806
 -------------------------------------------------------------------
 Cartesian Forces:  Max     0.087351830 RMS     0.032536631

 GradGradGradGradGradGradGradGradGradGradGradGradGradGradGradGradGradGrad
 Berny optimization.
 FormGI is forming the generalized inverse of G from B-inverse, IUseBI=4.
 Internal  Forces:  Max     0.079619697 RMS     0.018973956
 Search for a local minimum.
 Step number   1 out of a maximum of   98
 All quantities printed in internal units (Hartrees-Bohrs-Radians)
 Mixed Optimization -- RFO/linear search
 Second derivative matrix not updated -- first step.
 ITU=  0
     Eigenvalues ---    0.00788   0.01109   0.01792   0.01910   0.01933
     Eigenvalues ---    0.02130   0.02138   0.02177   0.02255   0.02892
     Eigenvalues ---    0.03361   0.05315   0.05435   0.05991   0.06397
     Eigenvalues ---    0.07114   0.08629   0.09840   0.10749   0.15628
     Eigenvalues ---    0.16000   0.16000   0.16000   0.16000   0.16000
     Eigenvalues ---    0.19013   0.22000   0.26944   0.27280   0.30096
     Eigenvalues ---    0.31468   0.31559   0.34897   0.34902   0.35418
     Eigenvalues ---    0.35419   0.35706   0.36865   0.37230   0.40319
     Eigenvalues ---    0.44012   0.45660   0.465831000.000001000.00000
     Eigenvalues --- 1000.000001000.000001000.000001000.000001000.00000
     Eigenvalues --- 1000.000001000.000001000.000001000.000001000.00000
     Eigenvalues --- 1000.000001000.000001000.000001000.000001000.00000
     Eigenvalues --- 1000.000001000.000001000.000001000.000001000.00000
     Eigenvalues --- 1000.000001000.000001000.000001000.000001000.00000
     Eigenvalues --- 1000.000001000.000001000.000001000.000001000.00000
     Eigenvalues --- 1000.000001000.000001000.000001000.000001000.00000
     Eigenvalues --- 1000.000001000.000001000.000001000.000001000.00000
     Eigenvalues --- 1000.000001000.000001000.00000
 RFO step:  Lambda=-8.36166810D-02 EMin= 7.88189850D-03
 Linear search not attempted -- first point.
 Maximum step size (   0.300) exceeded in Quadratic search.
    -- Step size scaled by   0.683
 Iteration  1 RMS(Cart)=  0.04555941 RMS(Int)=  0.00177073
 Iteration  2 RMS(Cart)=  0.00159506 RMS(Int)=  0.00094340
 Iteration  3 RMS(Cart)=  0.00000364 RMS(Int)=  0.00094340
 Iteration  4 RMS(Cart)=  0.00000000 RMS(Int)=  0.00094340
 Iteration  1 RMS(Cart)=  0.00003625 RMS(Int)=  0.00000687
 Iteration  2 RMS(Cart)=  0.00000392 RMS(Int)=  0.00000722
 Iteration  3 RMS(Cart)=  0.00000057 RMS(Int)=  0.00000733
 Variable       Old X    -DE/DX   Delta X   Delta X   Delta X     New X
                                 (Linear)    (Quad)   (Total)
    R1        2.64892  -0.02393   0.00000  -0.03317  -0.03321   2.61571
    R2        2.05842  -0.00638   0.00000  -0.01007  -0.01007   2.04835
    R3        2.63012   0.07962   0.00000   0.10567   0.10578   2.73589
    R4        5.66918   0.00333   0.00000   0.00000   0.00000   5.66918
    R5        2.71151   0.02510   0.00000   0.02504   0.02489   2.73640
    R6        2.05001  -0.00367   0.00000  -0.00573  -0.00573   2.04428
    R7        2.64911  -0.02410   0.00000  -0.03342  -0.03347   2.61564
    R8        2.05000  -0.00367   0.00000  -0.00572  -0.00572   2.04427
    R9        2.05835  -0.00638   0.00000  -0.01007  -0.01007   2.04828
   R10        2.63013   0.07955   0.00000   0.10564   0.10576   2.73588
   R11        5.66918   0.00404   0.00000   0.00000  -0.00000   5.66918
   R12        2.02201   0.02547   0.00000   0.03817   0.03817   2.06018
   R13        2.02201   0.01684   0.00000   0.02979   0.02959   2.05159
   R14        5.20505  -0.00696   0.00000  -0.02755  -0.02775   5.17729
   R15        5.12205  -0.00611   0.00000  -0.02329  -0.02306   5.09899
   R16        2.21207  -0.04208   0.00000  -0.08142  -0.08142   2.13065
   R17        2.11658  -0.01784   0.00000  -0.03053  -0.03053   2.08605
   R18        2.80247  -0.07730   0.00000  -0.13210  -0.13249   2.66997
   R19        2.14473  -0.02469   0.00000  -0.04385  -0.04385   2.10087
   R20        2.20440  -0.04038   0.00000  -0.07739  -0.07739   2.12701
    A1        2.27063  -0.00575   0.00000  -0.02300  -0.02303   2.24760
    A2        1.89225  -0.00476   0.00000   0.00039   0.00041   1.89266
    A3        2.12031   0.01051   0.00000   0.02261   0.02257   2.14288
    A4        1.87077   0.01636   0.00000   0.02032   0.02010   1.89087
    A5        2.20681  -0.00754   0.00000  -0.00837  -0.00826   2.19854
    A6        2.20561  -0.00882   0.00000  -0.01195  -0.01185   2.19376
    A7        1.87074   0.01637   0.00000   0.02031   0.02008   1.89083
    A8        2.20561  -0.00883   0.00000  -0.01196  -0.01186   2.19376
    A9        2.20683  -0.00754   0.00000  -0.00834  -0.00823   2.19859
   A10        2.27088  -0.00581   0.00000  -0.02309  -0.02312   2.24776
   A11        1.89218  -0.00467   0.00000   0.00053   0.00054   1.89272
   A12        2.12012   0.01048   0.00000   0.02256   0.02252   2.14265
   A13        1.89884  -0.02330   0.00000  -0.04155  -0.04129   1.85755
   A14        1.91355   0.00821   0.00000   0.01967   0.01984   1.93339
   A15        1.91360   0.00804   0.00000   0.01364   0.01350   1.92710
   A16        1.91360   0.00875   0.00000   0.02141   0.02146   1.93506
   A17        1.91355   0.00690   0.00000   0.00982   0.00994   1.92349
   A18        1.91063  -0.00859   0.00000  -0.02291  -0.02295   1.88768
   A19        1.85896  -0.00824   0.00000  -0.01091  -0.01138   1.84757
   A20        1.87306  -0.00794   0.00000  -0.00852  -0.00921   1.86386
   A21        2.69171  -0.01587   0.00000  -0.05893  -0.05922   2.63249
   A22        1.56335  -0.00764   0.00000  -0.04223  -0.04384   1.51950
   A23        1.88324   0.01197   0.00000   0.04415   0.03932   1.92256
   A24        1.98808  -0.00154   0.00000   0.01729   0.01786   2.00594
   A25        2.01755   0.01017   0.00000   0.04523   0.04352   2.06107
   A26        1.54284  -0.00833   0.00000  -0.04393  -0.04534   1.49750
   A27        2.69703  -0.01714   0.00000  -0.06239  -0.06235   2.63468
   A28        1.98803   0.01286   0.00000   0.05334   0.05155   2.03958
   A29        1.98494  -0.00158   0.00000   0.01712   0.01716   2.00210
   A30        1.87057   0.01226   0.00000   0.04646   0.04169   1.91226
    D1       -3.14148  -0.00019   0.00000  -0.00107  -0.00067   3.14104
    D2        0.00009  -0.00072   0.00000  -0.00485  -0.00468  -0.00460
    D3        0.00001   0.00140   0.00000   0.00970   0.00999   0.01000
    D4        3.14157   0.00087   0.00000   0.00592   0.00598  -3.13563
    D5        0.00007  -0.00226   0.00000  -0.01584  -0.01577  -0.01571
    D6        2.09267  -0.00084   0.00000  -0.00324  -0.00340   2.08926
    D7       -2.09250  -0.00132   0.00000  -0.01073  -0.01071  -2.10321
    D8        3.14156  -0.00083   0.00000  -0.00619  -0.00589   3.13567
    D9       -1.04903   0.00058   0.00000   0.00642   0.00648  -1.04255
   D10        1.04900   0.00011   0.00000  -0.00107  -0.00083   1.04817
   D11       -0.00008  -0.00005   0.00000  -0.00008  -0.00008  -0.00015
   D12       -3.14156  -0.00049   0.00000  -0.00368  -0.00392   3.13771
   D13        3.14154   0.00049   0.00000   0.00369   0.00392  -3.13772
   D14        0.00006   0.00004   0.00000   0.00009   0.00008   0.00014
   D15       -3.14146   0.00041   0.00000   0.00166   0.00123  -3.14023
   D16        0.00012  -0.00133   0.00000  -0.00957  -0.00987  -0.00975
   D17        0.00003   0.00086   0.00000   0.00526   0.00508   0.00511
   D18       -3.14158  -0.00088   0.00000  -0.00597  -0.00602   3.13558
   D19       -0.00012   0.00223   0.00000   0.01579   0.01573   0.01561
   D20       -2.09268   0.00115   0.00000   0.00426   0.00440  -2.08828
   D21        2.09248   0.00199   0.00000   0.01305   0.01298   2.10546
   D22        3.14146   0.00067   0.00000   0.00572   0.00544  -3.13629
   D23        1.04890  -0.00041   0.00000  -0.00581  -0.00589   1.04301
   D24       -1.04913   0.00043   0.00000   0.00298   0.00269  -1.04644
   D25        0.74753  -0.00094   0.00000  -0.00301  -0.00287   0.74466
   D26        1.32228  -0.01797   0.00000  -0.02979  -0.02980   1.29248
   D27       -1.33602   0.01849   0.00000   0.03355   0.03348  -1.30255
   D28       -0.76127   0.00145   0.00000   0.00677   0.00655  -0.75472
   D29        2.84733   0.00880   0.00000   0.01538   0.01539   2.86272
   D30       -2.86111  -0.00824   0.00000  -0.01140  -0.01153  -2.87264
   D31       -0.22417  -0.00822   0.00000  -0.04377  -0.04173  -0.26590
   D32       -2.55846   0.00865   0.00000   0.05943   0.05823  -2.50023
   D33        2.64176  -0.00843   0.00000  -0.05426  -0.05320   2.58856
   D34        0.39171   0.00729   0.00000   0.03409   0.03239   0.42411
   D35       -2.18013  -0.02511   0.00000  -0.11909  -0.12123  -2.30136
   D36       -0.02974   0.00081   0.00000   0.00179   0.00186  -0.02788
   D37        0.01580  -0.00040   0.00000  -0.00014  -0.00021   0.01559
   D38        2.16619   0.02552   0.00000   0.12074   0.12288   2.28906
         Item               Value     Threshold  Converged?
 Maximum Force            0.079596     0.000450     NO 
 RMS     Force            0.019184     0.000300     NO 
 Maximum Displacement     0.155884     0.001800     NO 
 RMS     Displacement     0.045614     0.001200     NO 
 Predicted change in Energy=-4.311905D-02
 GradGradGradGradGradGradGradGradGradGradGradGradGradGradGradGradGradGrad

                          Input orientation:                          
 ---------------------------------------------------------------------
 Center     Atomic      Atomic             Coordinates (Angstroms)
 Number     Number       Type             X           Y           Z
 ---------------------------------------------------------------------
      1          6           0        1.931230   -1.348052    0.041721
      2          6           0        3.314931   -1.320828    0.017872
      3          6           0        3.743537    0.062325    0.020918
      4          6           0        2.617643    0.867030    0.046395
      5          1           0        1.269084   -2.206227    0.046251
      6          1           0        3.967236   -2.183704    0.003523
      7          1           0        4.769475    0.405206    0.009100
      8          1           0        2.556535    1.949179    0.054460
      9          6           0        1.446342    0.016097    0.046766
     10          1           0        0.825750    0.209142   -0.828522
     11          1           0        0.848004    0.202038    0.933371
     12          6           0        2.195765   -0.976946    3.006902
     13          1           0        2.985739   -1.682754    3.392925
     14          1           0        1.208523   -1.248799    3.419242
     15          6           0        2.564213    0.387056    3.007268
     16          1           0        1.834235    1.104406    3.441427
     17          1           0        3.590143    0.597232    3.419806
 ---------------------------------------------------------------------
                    Distance matrix (angstroms):
                    1          2          3          4          5
     1  C    0.000000
     2  C    1.384175   0.000000
     3  C    2.296531   1.448042   0.000000
     4  C    2.319003   2.296465   1.384138   0.000000
     5  H    1.083938   2.229401   3.357065   3.356116   0.000000
     6  H    2.201158   1.081787   2.257208   3.336199   2.698585
     7  H    3.336257   2.257204   1.081784   2.201148   4.367345
     8  H    3.356025   3.357000   2.229421   1.083903   4.350287
     9  C    1.447772   2.297788   2.297805   1.447768   2.229382
    10  H    2.098633   3.041910   3.042463   2.099803   2.606872
    11  H    2.090741   3.040229   3.039112   2.088196   2.600775
    12  C    3.000000   3.210155   3.520197   3.513237   3.336963
    13  H    3.529106   3.410329   3.871691   4.223288   3.797520
    14  H    3.455402   4.001433   4.437786   4.223559   3.506765
    15  C    3.493671   3.523767   3.227157   3.000000   4.143681
    16  H    4.193085   4.449152   4.053548   3.492323   4.775657
    17  H    4.236459   3.915081   3.444140   3.521143   4.962617
                    6          7          8          9         10
     6  H    0.000000
     7  H    2.710364   0.000000
     8  H    4.367310   2.698705   0.000000
     9  C    3.346027   3.346048   2.229214   0.000000
    10  H    4.035709   4.036461   2.608256   1.090198   0.000000
    11  H    4.035591   4.034041   2.596934   1.085657   1.762049
    12  C    3.689806   4.185827   4.172443   3.210946   4.241960
    13  H    3.564034   4.357932   4.951819   4.056182   5.105432
    14  H    4.489063   5.200498   4.833835   3.609724   4.507284
    15  C    4.195208   3.721898   3.340564   3.186191   4.215115
    16  H    5.213497   4.570053   3.564675   3.585889   4.477835
    17  H    4.421176   3.613947   3.771162   4.038688   5.083382
                   11         12         13         14         15
    11  H    0.000000
    12  C    2.739706   0.000000
    13  H    3.764539   1.127492   0.000000
    14  H    2.900768   1.103891   1.829619   0.000000
    15  C    2.698268   1.412889   2.147214   2.164172   0.000000
    16  H    2.842052   2.156743   3.016053   2.435073   1.111734
    17  H    3.722615   2.143086   2.358891   3.013295   1.125564
                   16         17
    16  H    0.000000
    17  H    1.827815   0.000000
 Stoichiometry    C7H10
 Framework group  C1[X(C7H10)]
 Deg. of freedom    45
 Full point group                 C1      NOp   1
 Largest Abelian subgroup         C1      NOp   1
 Largest concise Abelian subgroup C1      NOp   1
                         Standard orientation:                         
 ---------------------------------------------------------------------
 Center     Atomic      Atomic             Coordinates (Angstroms)
 Number     Number       Type             X           Y           Z
 ---------------------------------------------------------------------
      1          6           0       -0.897694    1.146200   -0.394768
      2          6           0       -1.058135    0.767154    0.926793
      3          6           0       -1.069391   -0.679563    0.987680
      4          6           0       -0.915924   -1.170680   -0.297268
      5          1           0       -0.845016    2.144817   -0.812992
      6          1           0       -1.154736    1.435225    1.772140
      7          1           0       -1.175928   -1.272660    1.886090
      8          1           0       -0.879749   -2.201496   -0.630367
      9          6           0       -0.816725   -0.049203   -1.207478
     10          1           0       -1.622006   -0.072714   -1.941985
     11          1           0        0.128475   -0.081368   -1.740595
     12          6           0        2.033572    0.703336    0.065184
     13          1           0        2.324832    1.182190    1.043501
     14          1           0        2.536181    1.215648   -0.773562
     15          6           0        2.025226   -0.709507    0.072807
     16          1           0        2.544213   -1.219405   -0.767794
     17          1           0        2.338155   -1.176659    1.047865
 ---------------------------------------------------------------------
 Rotational constants (GHZ):           3.7033130           2.0623827           1.9416134
 Standard basis: 3-21G (6D, 7F)
 There are    83 symmetry adapted cartesian basis functions of A   symmetry.
 There are    83 symmetry adapted basis functions of A   symmetry.
    83 basis functions,   135 primitive gaussians,    83 cartesian basis functions
    26 alpha electrons       26 beta electrons
       nuclear repulsion energy       278.0672626964 Hartrees.
 NAtoms=   17 NActive=   17 NUniq=   17 SFac= 1.00D+00 NAtFMM=   60 NAOKFM=F Big=F
 Integral buffers will be    131072 words long.
 Raffenetti 2 integral format.
 Two-electron integral symmetry is turned on.
 One-electron integrals computed using PRISM.
 NBasis=    83 RedAO= T EigKep=  4.33D-03  NBF=    83
 NBsUse=    83 1.00D-06 EigRej= -1.00D+00 NBFU=    83
 Initial guess from the checkpoint file:  "C3.chk"
 B after Tr=    -0.000000    0.000000   -0.000000
         Rot=    0.999955   -0.000542    0.009206   -0.002159 Ang=  -1.09 deg.
 ExpMin= 1.83D-01 ExpMax= 1.72D+02 ExpMxC= 1.72D+02 IAcc=3 IRadAn=         5 AccDes= 0.00D+00
 Harris functional with IExCor=  402 and IRadAn=       5 diagonalized for initial guess.
 HarFok:  IExCor=  402 AccDes= 0.00D+00 IRadAn=         5 IDoV= 1 UseB2=F ITyADJ=14
 ICtDFT=  3500011 ScaDFX=  1.000000  1.000000  1.000000  1.000000
 FoFCou: FMM=F IPFlag=           0 FMFlag=      100000 FMFlg1=           0
         NFxFlg=           0 DoJE=T BraDBF=F KetDBF=T FulRan=T
         wScrn=  0.000000 ICntrl=       500 IOpCl=  0 I1Cent=   200000004 NGrid=           0
         NMat0=    1 NMatS0=      1 NMatT0=    0 NMatD0=    1 NMtDS0=    0 NMtDT0=    0
 Petite list used in FoFCou.
 Keep R1 ints in memory in canonical form, NReq=7891700.
 Requested convergence on RMS density matrix=1.00D-08 within 128 cycles.
 Requested convergence on MAX density matrix=1.00D-06.
 Requested convergence on             energy=1.00D-06.
 No special actions if energy rises.
 Integral accuracy reduced to 1.0D-05 until final iterations.
 Initial convergence to 1.0D-05 achieved.  Increase integral accuracy.
 SCF Done:  E(RB3LYP) =  -271.144176838     A.U. after   13 cycles
            NFock= 13  Conv=0.45D-08     -V/T= 2.0095
 Calling FoFJK, ICntrl=      2127 FMM=F ISym2X=0 I1Cent= 0 IOpClX= 0 NMat=1 NMatS=1 NMatT=0.
 ***** Axes restored to original set *****
 -------------------------------------------------------------------
 Center     Atomic                   Forces (Hartrees/Bohr)
 Number     Number              X              Y              Z
 -------------------------------------------------------------------
      1        6           0.032774707   -0.034221354    0.002948597
      2        6          -0.022179446   -0.011975736   -0.002065723
      3        6          -0.011572198    0.022576245   -0.002207089
      4        6           0.046629376    0.009595760    0.002875323
      5        1           0.005047129   -0.000118722   -0.000460885
      6        1           0.000132163    0.001350175    0.000228450
      7        1          -0.000653140   -0.001200457    0.000261226
      8        1           0.004231677   -0.002750752   -0.000381190
      9        6          -0.039010031    0.011935775   -0.003394024
     10        1          -0.007175520    0.002287675   -0.005446297
     11        1          -0.007752763    0.002231324    0.005015810
     12        6           0.026796276    0.043920367    0.051175599
     13        1          -0.012698378    0.006933813   -0.027665335
     14        1           0.000396296    0.000990915   -0.023080362
     15        6          -0.005309826   -0.049865429    0.055836960
     16        1           0.002713506   -0.002407555   -0.025117843
     17        1          -0.012369828    0.000717954   -0.028523217
 -------------------------------------------------------------------
 Cartesian Forces:  Max     0.055836960 RMS     0.020647583

 GradGradGradGradGradGradGradGradGradGradGradGradGradGradGradGradGradGrad
 Berny optimization.
 Using GEDIIS/GDIIS optimizer.
 FormGI is forming the generalized inverse of G from B-inverse, IUseBI=4.
 Internal  Forces:  Max     0.045542325 RMS     0.010765692
 Search for a local minimum.
 Step number   2 out of a maximum of   98
 All quantities printed in internal units (Hartrees-Bohrs-Radians)
 Mixed Optimization -- RFO/linear search
 Update second derivatives using D2CorX and points    1    2
 DE= -4.61D-02 DEPred=-4.31D-02 R= 1.07D+00
 TightC=F SS=  1.41D+00  RLast= 3.62D-01 DXNew= 5.0454D-01 1.0875D+00
 Trust test= 1.07D+00 RLast= 3.62D-01 DXMaxT set to 5.05D-01
 ITU=  1  0
 Use linear search instead of GDIIS.
     Eigenvalues ---    0.00799   0.01189   0.01793   0.01911   0.01928
     Eigenvalues ---    0.02134   0.02140   0.02177   0.02239   0.02849
     Eigenvalues ---    0.03792   0.04399   0.05328   0.05778   0.06241
     Eigenvalues ---    0.07203   0.08727   0.10132   0.10618   0.15637
     Eigenvalues ---    0.15869   0.15999   0.16000   0.16000   0.16101
     Eigenvalues ---    0.18972   0.21999   0.26816   0.27222   0.29538
     Eigenvalues ---    0.30238   0.31577   0.34899   0.34906   0.35419
     Eigenvalues ---    0.35433   0.35867   0.36911   0.37861   0.40468
     Eigenvalues ---    0.42364   0.46530   0.488471000.000001000.00000
     Eigenvalues --- 1000.000001000.000001000.000001000.000001000.00000
     Eigenvalues --- 1000.000001000.000001000.000001000.000001000.00000
     Eigenvalues --- 1000.000001000.000001000.000001000.000001000.00000
     Eigenvalues --- 1000.000001000.000001000.000001000.000001000.00000
     Eigenvalues --- 1000.000001000.000001000.000001000.000001000.00000
     Eigenvalues --- 1000.000001000.000001000.000001000.000001000.00000
     Eigenvalues --- 1000.000001000.000001000.000001000.000001000.00000
     Eigenvalues --- 1000.000001000.000001000.000001000.000001000.00000
     Eigenvalues --- 1000.000001000.000001000.00000
 RFO step:  Lambda=-2.63620063D-02 EMin= 7.98600815D-03
 Quartic linear search produced a step of  1.48722.
 Iteration  1 RMS(Cart)=  0.07701715 RMS(Int)=  0.03243427
 Iteration  2 RMS(Cart)=  0.02739106 RMS(Int)=  0.01557633
 Iteration  3 RMS(Cart)=  0.00176104 RMS(Int)=  0.01547933
 Iteration  4 RMS(Cart)=  0.00006551 RMS(Int)=  0.01547920
 Iteration  5 RMS(Cart)=  0.00000275 RMS(Int)=  0.01547920
 Iteration  6 RMS(Cart)=  0.00000014 RMS(Int)=  0.01547920
 Iteration  1 RMS(Cart)=  0.00017822 RMS(Int)=  0.00004565
 Iteration  2 RMS(Cart)=  0.00002833 RMS(Int)=  0.00004875
 Iteration  3 RMS(Cart)=  0.00000503 RMS(Int)=  0.00004989
 Iteration  4 RMS(Cart)=  0.00000091 RMS(Int)=  0.00005011
 Variable       Old X    -DE/DX   Delta X   Delta X   Delta X     New X
                                 (Linear)    (Quad)   (Total)
    R1        2.61571  -0.01798  -0.04939  -0.02265  -0.07227   2.54344
    R2        2.04835  -0.00299  -0.01498   0.00339  -0.01158   2.03676
    R3        2.73589   0.03667   0.15731  -0.03586   0.12196   2.85786
    R4        5.66918   0.00269   0.00000   0.00000   0.00000   5.66918
    R5        2.73640   0.01341   0.03701   0.00057   0.03687   2.77327
    R6        2.04428  -0.00100  -0.00852   0.00638  -0.00214   2.04214
    R7        2.61564  -0.01813  -0.04977  -0.02290  -0.07293   2.54271
    R8        2.04427  -0.00100  -0.00851   0.00635  -0.00216   2.04211
    R9        2.04828  -0.00299  -0.01498   0.00342  -0.01156   2.03672
   R10        2.73588   0.03674   0.15728  -0.03544   0.12257   2.85845
   R11        5.66918   0.00326  -0.00000   0.00000  -0.00000   5.66918
   R12        2.06018   0.00886   0.05676  -0.03080   0.02597   2.08614
   R13        2.05159   0.00654   0.04400  -0.01777   0.02686   2.07846
   R14        5.17729  -0.00384  -0.04128   0.00358  -0.03664   5.14065
   R15        5.09899  -0.00312  -0.03430   0.01151  -0.01990   5.07909
   R16        2.13065  -0.02271  -0.12108   0.00611  -0.11497   2.01568
   R17        2.08605  -0.00922  -0.04540   0.00476  -0.04065   2.04540
   R18        2.66997  -0.04554  -0.19705  -0.01443  -0.21852   2.45146
   R19        2.10087  -0.01314  -0.06522   0.00423  -0.06100   2.03988
   R20        2.12701  -0.02160  -0.11510   0.00729  -0.10781   2.01920
    A1        2.24760  -0.00384  -0.03425  -0.00289  -0.03734   2.21026
    A2        1.89266  -0.00068   0.00061   0.01678   0.01751   1.91017
    A3        2.14288   0.00451   0.03356  -0.01399   0.01927   2.16214
    A4        1.89087   0.00715   0.02990  -0.01180   0.01716   1.90803
    A5        2.19854  -0.00264  -0.01229   0.01313   0.00130   2.19984
    A6        2.19376  -0.00451  -0.01762  -0.00134  -0.01851   2.17525
    A7        1.89083   0.00711   0.02987  -0.01220   0.01668   1.90751
    A8        2.19376  -0.00451  -0.01763  -0.00127  -0.01844   2.17532
    A9        2.19859  -0.00261  -0.01225   0.01346   0.00169   2.20028
   A10        2.24776  -0.00388  -0.03439  -0.00303  -0.03758   2.21018
   A11        1.89272  -0.00061   0.00081   0.01702   0.01791   1.91063
   A12        2.14265   0.00448   0.03350  -0.01409   0.01909   2.16174
   A13        1.85755  -0.01301  -0.06141  -0.00992  -0.07035   1.78720
   A14        1.93339   0.00436   0.02951  -0.00673   0.02297   1.95636
   A15        1.92710   0.00452   0.02007   0.00359   0.02317   1.95027
   A16        1.93506   0.00453   0.03191  -0.00826   0.02302   1.95808
   A17        1.92349   0.00404   0.01478   0.00313   0.01944   1.94293
   A18        1.88768  -0.00424  -0.03413   0.01768  -0.01718   1.87050
   A19        1.84757  -0.00394  -0.01693   0.00283  -0.01660   1.83097
   A20        1.86386  -0.00376  -0.01369   0.00244  -0.01559   1.84827
   A21        2.63249  -0.01462  -0.08807  -0.11512  -0.19201   2.44049
   A22        1.51950  -0.00745  -0.06520  -0.10264  -0.18578   1.33372
   A23        1.92256   0.00805   0.05848   0.04663   0.02918   1.95174
   A24        2.00594   0.00202   0.02655   0.08098   0.10185   2.10779
   A25        2.06107   0.00794   0.06473   0.09158   0.11423   2.17530
   A26        1.49750  -0.00808  -0.06743  -0.10533  -0.18717   1.31033
   A27        2.63468  -0.01589  -0.09273  -0.12261  -0.19980   2.43488
   A28        2.03958   0.00995   0.07666   0.09755   0.12944   2.16901
   A29        2.00210   0.00237   0.02553   0.08595   0.10066   2.10276
   A30        1.91226   0.00829   0.06201   0.05199   0.03929   1.95155
    D1        3.14104  -0.00022  -0.00100  -0.00749  -0.00697   3.13407
    D2       -0.00460  -0.00058  -0.00697  -0.00806  -0.01437  -0.01897
    D3        0.01000   0.00094   0.01486   0.00322   0.01906   0.02906
    D4       -3.13563   0.00057   0.00889   0.00265   0.01165  -3.12398
    D5       -0.01571  -0.00131  -0.02346  -0.00583  -0.02862  -0.04432
    D6        2.08926  -0.00135  -0.00506  -0.02575  -0.03160   2.05766
    D7       -2.10321  -0.00089  -0.01593  -0.00566  -0.02225  -2.12546
    D8        3.13567  -0.00018  -0.00876   0.00403  -0.00305   3.13262
    D9       -1.04255  -0.00022   0.00964  -0.01589  -0.00603  -1.04858
   D10        1.04817   0.00023  -0.00123   0.00420   0.00331   1.05148
   D11       -0.00015  -0.00000  -0.00011   0.00082   0.00081   0.00066
   D12        3.13771  -0.00036  -0.00582  -0.00143  -0.00808   3.12963
   D13       -3.13772   0.00035   0.00583   0.00135   0.00803  -3.12969
   D14        0.00014  -0.00000   0.00013  -0.00091  -0.00086  -0.00072
   D15       -3.14023   0.00028   0.00182   0.00606   0.00597  -3.13426
   D16       -0.00975  -0.00093  -0.01468  -0.00452  -0.02032  -0.03008
   D17        0.00511   0.00064   0.00755   0.00836   0.01507   0.02018
   D18        3.13558  -0.00057  -0.00896  -0.00222  -0.01122   3.12437
   D19        0.01561   0.00131   0.02339   0.00635   0.02914   0.04475
   D20       -2.08828   0.00147   0.00654   0.02530   0.03224  -2.05604
   D21        2.10546   0.00124   0.01930   0.00650   0.02557   2.13103
   D22       -3.13629   0.00012   0.00809  -0.00339   0.00330  -3.13299
   D23        1.04301   0.00029  -0.00876   0.01556   0.00639   1.04940
   D24       -1.04644   0.00005   0.00400  -0.00323  -0.00027  -1.04671
   D25        0.74466  -0.00033  -0.00427  -0.00144  -0.00441   0.74025
   D26        1.29248  -0.01018  -0.04431  -0.00482  -0.04980   1.24268
   D27       -1.30255   0.01044   0.04979   0.00665   0.05632  -1.24623
   D28       -0.75472   0.00058   0.00974   0.00327   0.01093  -0.74379
   D29        2.86272   0.00510   0.02289   0.00373   0.02711   2.88983
   D30       -2.87264  -0.00476  -0.01715   0.00035  -0.01828  -2.89092
   D31       -0.26590  -0.00778  -0.06206  -0.13343  -0.15310  -0.41900
   D32       -2.50023   0.00868   0.08661   0.13543   0.19866  -2.30157
   D33        2.58856  -0.00860  -0.07912  -0.13637  -0.19547   2.39309
   D34        0.42411   0.00700   0.04818   0.10332   0.11425   0.53835
   D35       -2.30136  -0.02460  -0.18030  -0.26897  -0.46730  -2.76866
   D36       -0.02788   0.00079   0.00276   0.00145   0.00569  -0.02220
   D37        0.01559  -0.00045  -0.00031   0.00239   0.00091   0.01650
   D38        2.28906   0.02494   0.18274   0.27281   0.47390   2.76296
         Item               Value     Threshold  Converged?
 Maximum Force            0.045424     0.000450     NO 
 RMS     Force            0.010880     0.000300     NO 
 Maximum Displacement     0.387402     0.001800     NO 
 RMS     Displacement     0.097778     0.001200     NO 
 Predicted change in Energy=-4.646921D-02
 GradGradGradGradGradGradGradGradGradGradGradGradGradGradGradGradGradGrad

                          Input orientation:                          
 ---------------------------------------------------------------------
 Center     Atomic      Atomic             Coordinates (Angstroms)
 Number     Number       Type             X           Y           Z
 ---------------------------------------------------------------------
      1          6           0        1.962170   -1.380846    0.110458
      2          6           0        3.305368   -1.330272    0.041206
      3          6           0        3.739495    0.071581    0.047871
      4          6           0        2.659713    0.870998    0.121990
      5          1           0        1.351453   -2.268904    0.117295
      6          1           0        3.972266   -2.179526   -0.001491
      7          1           0        4.769737    0.395695    0.011392
      8          1           0        2.657291    1.948654    0.138569
      9          6           0        1.405639    0.025236    0.127575
     10          1           0        0.762273    0.227765   -0.746349
     11          1           0        0.800620    0.213029    1.026690
     12          6           0        2.205943   -0.915690    3.064134
     13          1           0        2.935931   -1.676038    3.227639
     14          1           0        1.199642   -1.284984    3.214237
     15          6           0        2.540138    0.337755    3.071796
     16          1           0        1.850110    1.149844    3.243846
     17          1           0        3.550596    0.628102    3.262568
 ---------------------------------------------------------------------
                    Distance matrix (angstroms):
                    1          2          3          4          5
     1  C    0.000000
     2  C    1.345932   0.000000
     3  C    2.296158   1.467550   0.000000
     4  C    2.357435   2.295427   1.345544   0.000000
     5  H    1.077808   2.169010   3.344463   3.401551   0.000000
     6  H    2.165850   1.080652   2.263648   3.323212   2.625026
     7  H    3.323905   2.263676   1.080639   2.165721   4.335432
     8  H    3.401404   3.343776   2.168592   1.077786   4.415139
     9  C    1.512312   2.335345   2.335676   1.512629   2.294803
    10  H    2.182086   3.084648   3.085292   2.183584   2.706727
    11  H    2.174654   3.102696   3.100819   2.169707   2.700075
    12  C    3.000000   3.243257   3.524816   3.471941   3.353387
    13  H    3.279050   3.226360   3.716290   4.026008   3.540664
    14  H    3.197512   3.808446   4.279836   4.042531   3.253029
    15  C    3.472342   3.542932   3.263959   3.000000   4.115425
    16  H    4.029277   4.304145   3.866094   3.237159   4.659595
    17  H    4.061375   3.777902   3.267978   3.273515   4.808495
                    6          7          8          9         10
     6  H    0.000000
     7  H    2.695902   0.000000
     8  H    4.334818   2.624935   0.000000
     9  C    3.386032   3.386428   2.294839   0.000000
    10  H    4.080921   4.081928   2.708436   1.103939   0.000000
    11  H    4.103756   4.100986   2.692281   1.099873   1.773515
    12  C    3.757026   4.196666   4.119115   3.185782   4.232193
    13  H    3.428524   4.242543   4.770575   3.853119   4.913434
    14  H    4.339189   5.082172   4.694772   3.359553   4.262153
    15  C    4.222889   3.786891   3.348513   3.170677   4.213209
    16  H    5.110819   4.420602   3.306416   3.342670   4.237367
    17  H    4.326045   3.480009   3.507310   3.846098   4.899636
                   11         12         13         14         15
    11  H    0.000000
    12  C    2.720316   0.000000
    13  H    3.601708   1.066652   0.000000
    14  H    2.681161   1.082382   1.779831   0.000000
    15  C    2.687738   1.297254   2.058228   2.109621   0.000000
    16  H    2.625802   2.103650   3.027355   2.520392   1.079457
    17  H    3.568446   2.056881   2.384972   3.031372   1.068514
                   16         17
    16  H    0.000000
    17  H    1.778825   0.000000
 Stoichiometry    C7H10
 Framework group  C1[X(C7H10)]
 Deg. of freedom    45
 Full point group                 C1      NOp   1
 Largest Abelian subgroup         C1      NOp   1
 Largest concise Abelian subgroup C1      NOp   1
                         Standard orientation:                         
 ---------------------------------------------------------------------
 Center     Atomic      Atomic             Coordinates (Angstroms)
 Number     Number       Type             X           Y           Z
 ---------------------------------------------------------------------
      1          6           0       -0.869630    1.165224   -0.370377
      2          6           0       -1.102930    0.763918    0.892976
      3          6           0       -1.101409   -0.702719    0.944694
      4          6           0       -0.866392   -1.190735   -0.287011
      5          1           0       -0.818043    2.182416   -0.722979
      6          1           0       -1.257374    1.408391    1.746562
      7          1           0       -1.253943   -1.285832    1.841629
      8          1           0       -0.812224   -2.229980   -0.567469
      9          6           0       -0.734886   -0.045552   -1.266454
     10          1           0       -1.514822   -0.073068   -2.047238
     11          1           0        0.238223   -0.067102   -1.778622
     12          6           0        2.045463    0.655416    0.121896
     13          1           0        2.090780    1.197754    1.039263
     14          1           0        2.306142    1.275961   -0.725759
     15          6           0        2.055195   -0.641792    0.116708
     16          1           0        2.339493   -1.244200   -0.732707
     17          1           0        2.129303   -1.186898    1.032726
 ---------------------------------------------------------------------
 Rotational constants (GHZ):           3.7052365           2.0908601           1.9654058
 Standard basis: 3-21G (6D, 7F)
 There are    83 symmetry adapted cartesian basis functions of A   symmetry.
 There are    83 symmetry adapted basis functions of A   symmetry.
    83 basis functions,   135 primitive gaussians,    83 cartesian basis functions
    26 alpha electrons       26 beta electrons
       nuclear repulsion energy       279.7277848063 Hartrees.
 NAtoms=   17 NActive=   17 NUniq=   17 SFac= 1.00D+00 NAtFMM=   60 NAOKFM=F Big=F
 Integral buffers will be    131072 words long.
 Raffenetti 2 integral format.
 Two-electron integral symmetry is turned on.
 One-electron integrals computed using PRISM.
 NBasis=    83 RedAO= T EigKep=  4.35D-03  NBF=    83
 NBsUse=    83 1.00D-06 EigRej= -1.00D+00 NBFU=    83
 Initial guess from the checkpoint file:  "C3.chk"
 B after Tr=     0.000000   -0.000000    0.000000
         Rot=    0.999883   -0.003524    0.014476   -0.003564 Ang=  -1.76 deg.
 ExpMin= 1.83D-01 ExpMax= 1.72D+02 ExpMxC= 1.72D+02 IAcc=3 IRadAn=         5 AccDes= 0.00D+00
 Harris functional with IExCor=  402 and IRadAn=       5 diagonalized for initial guess.
 HarFok:  IExCor=  402 AccDes= 0.00D+00 IRadAn=         5 IDoV= 1 UseB2=F ITyADJ=14
 ICtDFT=  3500011 ScaDFX=  1.000000  1.000000  1.000000  1.000000
 FoFCou: FMM=F IPFlag=           0 FMFlag=      100000 FMFlg1=           0
         NFxFlg=           0 DoJE=T BraDBF=F KetDBF=T FulRan=T
         wScrn=  0.000000 ICntrl=       500 IOpCl=  0 I1Cent=   200000004 NGrid=           0
         NMat0=    1 NMatS0=      1 NMatT0=    0 NMatD0=    1 NMtDS0=    0 NMtDT0=    0
 Petite list used in FoFCou.
 Keep R1 ints in memory in canonical form, NReq=7891700.
 Requested convergence on RMS density matrix=1.00D-08 within 128 cycles.
 Requested convergence on MAX density matrix=1.00D-06.
 Requested convergence on             energy=1.00D-06.
 No special actions if energy rises.
 Integral accuracy reduced to 1.0D-05 until final iterations.
 Initial convergence to 1.0D-05 achieved.  Increase integral accuracy.
 SCF Done:  E(RB3LYP) =  -271.185015775     A.U. after   14 cycles
            NFock= 14  Conv=0.31D-08     -V/T= 2.0082
 Calling FoFJK, ICntrl=      2127 FMM=F ISym2X=0 I1Cent= 0 IOpClX= 0 NMat=1 NMatS=1 NMatT=0.
 ***** Axes restored to original set *****
 -------------------------------------------------------------------
 Center     Atomic                   Forces (Hartrees/Bohr)
 Number     Number              X              Y              Z
 -------------------------------------------------------------------
      1        6          -0.005700273   -0.003316287   -0.001546775
      2        6           0.005607756   -0.003453944   -0.001545580
      3        6           0.006660326   -0.000441932   -0.001523227
      4        6          -0.002863924    0.006188233   -0.002091658
      5        1          -0.001670999   -0.001236911    0.000013824
      6        1           0.000748219    0.000039232    0.000093404
      7        1           0.000586422   -0.000471836    0.000126458
      8        1          -0.000702633    0.001979262    0.000078074
      9        6          -0.007937941    0.002728950    0.000963162
     10        1           0.003295380   -0.000923019    0.000552687
     11        1           0.001685410   -0.000960676   -0.002582537
     12        6          -0.017304518   -0.036962881    0.019994858
     13        1           0.012380294   -0.010824899   -0.007947794
     14        1          -0.006688645    0.003478122   -0.009385379
     15        6           0.005419523    0.038387648    0.023257394
     16        1          -0.008699591    0.002495366   -0.009633481
     17        1           0.015185194    0.003295575   -0.008823430
 -------------------------------------------------------------------
 Cartesian Forces:  Max     0.038387648 RMS     0.010266129

 GradGradGradGradGradGradGradGradGradGradGradGradGradGradGradGradGradGrad
 Berny optimization.
 Using GEDIIS/GDIIS optimizer.
 FormGI is forming the generalized inverse of G from B-inverse, IUseBI=4.
 Internal  Forces:  Max     0.043458780 RMS     0.006088084
 Search for a local minimum.
 Step number   3 out of a maximum of   98
 All quantities printed in internal units (Hartrees-Bohrs-Radians)
 Mixed Optimization -- RFO/linear search
 Update second derivatives using D2CorX and points    2    3
 DE= -4.08D-02 DEPred=-4.65D-02 R= 8.79D-01
 TightC=F SS=  1.41D+00  RLast= 9.52D-01 DXNew= 8.4853D-01 2.8556D+00
 Trust test= 8.79D-01 RLast= 9.52D-01 DXMaxT set to 8.49D-01
 ITU=  1  1  0
 Use linear search instead of GDIIS.
     Eigenvalues ---    0.00737   0.01118   0.01796   0.01914   0.01927
     Eigenvalues ---    0.02140   0.02145   0.02159   0.02182   0.02650
     Eigenvalues ---    0.03122   0.04371   0.05845   0.06073   0.06786
     Eigenvalues ---    0.07421   0.08919   0.09914   0.11410   0.15694
     Eigenvalues ---    0.15970   0.15985   0.15998   0.16031   0.16089
     Eigenvalues ---    0.19301   0.21990   0.27090   0.27891   0.30147
     Eigenvalues ---    0.31569   0.34866   0.34900   0.35409   0.35419
     Eigenvalues ---    0.35950   0.36622   0.37059   0.39793   0.40534
     Eigenvalues ---    0.41902   0.46423   0.477941000.000001000.00000
     Eigenvalues --- 1000.000001000.000001000.000001000.000001000.00000
     Eigenvalues --- 1000.000001000.000001000.000001000.000001000.00000
     Eigenvalues --- 1000.000001000.000001000.000001000.000001000.00000
     Eigenvalues --- 1000.000001000.000001000.000001000.000001000.00000
     Eigenvalues --- 1000.000001000.000001000.000001000.000001000.00000
     Eigenvalues --- 1000.000001000.000001000.000001000.000001000.00000
     Eigenvalues --- 1000.000001000.000001000.000001000.000001000.00000
     Eigenvalues --- 1000.000001000.000001000.000001000.000001000.00000
     Eigenvalues --- 1000.000001000.000001000.00000
 RFO step:  Lambda=-1.55788810D-02 EMin= 7.36654471D-03
 Quartic linear search produced a step of  0.02161.
 Iteration  1 RMS(Cart)=  0.04126221 RMS(Int)=  0.00778468
 Iteration  2 RMS(Cart)=  0.00682067 RMS(Int)=  0.00250270
 Iteration  3 RMS(Cart)=  0.00009487 RMS(Int)=  0.00250089
 Iteration  4 RMS(Cart)=  0.00000038 RMS(Int)=  0.00250089
 Iteration  1 RMS(Cart)=  0.00002390 RMS(Int)=  0.00000568
 Iteration  2 RMS(Cart)=  0.00000340 RMS(Int)=  0.00000604
 Iteration  3 RMS(Cart)=  0.00000058 RMS(Int)=  0.00000617
 Variable       Old X    -DE/DX   Delta X   Delta X   Delta X     New X
                                 (Linear)    (Quad)   (Total)
    R1        2.54344   0.00759  -0.00156   0.01167   0.01010   2.55354
    R2        2.03676   0.00197  -0.00025   0.00371   0.00346   2.04022
    R3        2.85786   0.00371   0.00264   0.02235   0.02500   2.88286
    R4        5.66918   0.00189   0.00000   0.00000  -0.00000   5.66918
    R5        2.77327   0.00399   0.00080   0.01315   0.01392   2.78719
    R6        2.04214   0.00043  -0.00005   0.00015   0.00010   2.04224
    R7        2.54271   0.00778  -0.00158   0.01206   0.01047   2.55318
    R8        2.04211   0.00041  -0.00005   0.00012   0.00007   2.04218
    R9        2.03672   0.00198  -0.00025   0.00375   0.00350   2.04022
   R10        2.85845   0.00369   0.00265   0.02234   0.02502   2.88348
   R11        5.66918   0.00247  -0.00000   0.00000   0.00000   5.66918
   R12        2.08614  -0.00253   0.00056  -0.00018   0.00038   2.08653
   R13        2.07846  -0.00074   0.00058   0.00028   0.00096   2.07942
   R14        5.14065   0.00206  -0.00079  -0.01408  -0.01479   5.12586
   R15        5.07909   0.00176  -0.00043  -0.00043  -0.00053   5.07855
   R16        2.01568   0.01497  -0.00249   0.03866   0.03617   2.05185
   R17        2.04540   0.00373  -0.00088   0.00637   0.00549   2.05090
   R18        2.45146   0.04346  -0.00472   0.11393   0.10859   2.56004
   R19        2.03988   0.00590  -0.00132   0.01156   0.01024   2.05012
   R20        2.01920   0.01368  -0.00233   0.03432   0.03199   2.05119
    A1        2.21026   0.00086  -0.00081   0.00113   0.00028   2.21054
    A2        1.91017  -0.00039   0.00038  -0.00322  -0.00288   1.90730
    A3        2.16214  -0.00048   0.00042   0.00161   0.00198   2.16412
    A4        1.90803  -0.00022   0.00037   0.00283   0.00317   1.91120
    A5        2.19984   0.00073   0.00003   0.00208   0.00212   2.20196
    A6        2.17525  -0.00051  -0.00040  -0.00495  -0.00534   2.16991
    A7        1.90751  -0.00019   0.00036   0.00301   0.00334   1.91085
    A8        2.17532  -0.00054  -0.00040  -0.00513  -0.00552   2.16980
    A9        2.20028   0.00073   0.00004   0.00207   0.00212   2.20241
   A10        2.21018   0.00092  -0.00081   0.00138   0.00054   2.21072
   A11        1.91063  -0.00048   0.00039  -0.00349  -0.00314   1.90749
   A12        2.16174  -0.00045   0.00041   0.00164   0.00201   2.16375
   A13        1.78720   0.00129  -0.00152   0.00011  -0.00143   1.78577
   A14        1.95636  -0.00109   0.00050  -0.00435  -0.00385   1.95251
   A15        1.95027   0.00016   0.00050   0.00385   0.00429   1.95456
   A16        1.95808  -0.00109   0.00050  -0.00448  -0.00406   1.95402
   A17        1.94293   0.00005   0.00042   0.00306   0.00364   1.94657
   A18        1.87050   0.00065  -0.00037   0.00174   0.00133   1.87183
   A19        1.83097   0.00185  -0.00036   0.00295   0.00248   1.83345
   A20        1.84827   0.00224  -0.00034   0.00357   0.00287   1.85114
   A21        2.44049  -0.00438  -0.00415  -0.08028  -0.08318   2.35730
   A22        1.33372  -0.00433  -0.00402  -0.08474  -0.08926   1.24447
   A23        1.95174   0.00380   0.00063   0.03411   0.02437   1.97611
   A24        2.10779   0.00422   0.00220   0.01238   0.00900   2.11678
   A25        2.17530  -0.00461   0.00247   0.01626   0.01002   2.18532
   A26        1.31033  -0.00413  -0.00405  -0.08449  -0.08839   1.22195
   A27        2.43488  -0.00478  -0.00432  -0.08545  -0.08839   2.34649
   A28        2.16901  -0.00417   0.00280   0.02254   0.01465   2.18366
   A29        2.10276   0.00488   0.00218   0.01703   0.01133   2.11409
   A30        1.95155   0.00351   0.00085   0.03819   0.02759   1.97914
    D1        3.13407  -0.00044  -0.00015  -0.00512  -0.00527   3.12881
    D2       -0.01897  -0.00037  -0.00031  -0.00912  -0.00943  -0.02840
    D3        0.02906  -0.00003   0.00041   0.00952   0.00994   0.03899
    D4       -3.12398   0.00005   0.00025   0.00553   0.00577  -3.11821
    D5       -0.04432   0.00002  -0.00062  -0.01387  -0.01445  -0.05877
    D6        2.05766  -0.00104  -0.00068  -0.02126  -0.02198   2.03568
    D7       -2.12546  -0.00087  -0.00048  -0.01936  -0.01995  -2.14542
    D8        3.13262   0.00039  -0.00007   0.00029   0.00030   3.13292
    D9       -1.04858  -0.00068  -0.00013  -0.00710  -0.00723  -1.05581
   D10        1.05148  -0.00050   0.00007  -0.00520  -0.00520   1.04628
   D11        0.00066  -0.00002   0.00002  -0.00050  -0.00047   0.00018
   D12        3.12963   0.00008  -0.00017  -0.00416  -0.00433   3.12529
   D13       -3.12969  -0.00010   0.00017   0.00336   0.00354  -3.12615
   D14       -0.00072  -0.00001  -0.00002  -0.00029  -0.00032  -0.00104
   D15       -3.13426   0.00045   0.00013   0.00506   0.00513  -3.12913
   D16       -0.03008   0.00006  -0.00044  -0.00873  -0.00920  -0.03927
   D17        0.02018   0.00037   0.00033   0.00885   0.00915   0.02933
   D18        3.12437  -0.00003  -0.00024  -0.00495  -0.00518   3.11919
   D19        0.04475  -0.00003   0.00063   0.01355   0.01415   0.05890
   D20       -2.05604   0.00103   0.00070   0.02086   0.02154  -2.03450
   D21        2.13103   0.00092   0.00055   0.01958   0.02010   2.15113
   D22       -3.13299  -0.00038   0.00007   0.00022   0.00026  -3.13274
   D23        1.04940   0.00069   0.00014   0.00753   0.00765   1.05705
   D24       -1.04671   0.00057  -0.00001   0.00625   0.00621  -1.04050
   D25        0.74025  -0.00367  -0.00010  -0.00713  -0.00719   0.73305
   D26        1.24268   0.00553  -0.00108   0.01801   0.01687   1.25956
   D27       -1.24623  -0.00539   0.00122  -0.01144  -0.01026  -1.25649
   D28       -0.74379   0.00381   0.00024   0.01369   0.01381  -0.72998
   D29        2.88983  -0.00450   0.00059  -0.00895  -0.00838   2.88145
   D30       -2.89092   0.00470  -0.00040   0.01618   0.01569  -2.87523
   D31       -0.41900   0.00159  -0.00331   0.01985   0.01978  -0.39922
   D32       -2.30157   0.00129   0.00429   0.07593   0.07869  -2.22288
   D33        2.39309  -0.00151  -0.00422  -0.08546  -0.08882   2.30427
   D34        0.53835  -0.00190   0.00247  -0.04234  -0.04222   0.49614
   D35       -2.76866  -0.01359  -0.01010  -0.24064  -0.25222  -3.02088
   D36       -0.02220   0.00064   0.00012   0.01421   0.01451  -0.00768
   D37        0.01650  -0.00058   0.00002  -0.01003  -0.01017   0.00633
   D38        2.76296   0.01364   0.01024   0.24482   0.25657   3.01953
         Item               Value     Threshold  Converged?
 Maximum Force            0.043538     0.000450     NO 
 RMS     Force            0.006149     0.000300     NO 
 Maximum Displacement     0.185537     0.001800     NO 
 RMS     Displacement     0.045283     0.001200     NO 
 Predicted change in Energy=-9.563056D-03
 GradGradGradGradGradGradGradGradGradGradGradGradGradGradGradGradGradGrad

                          Input orientation:                          
 ---------------------------------------------------------------------
 Center     Atomic      Atomic             Coordinates (Angstroms)
 Number     Number       Type             X           Y           Z
 ---------------------------------------------------------------------
      1          6           0        1.965476   -1.393833    0.140018
      2          6           0        3.312093   -1.337119    0.043292
      3          6           0        3.747627    0.071989    0.053704
      4          6           0        2.667335    0.876806    0.157029
[...]
 ! A22   A(11,12,14)            70.6979         -DE/DX =    0.0                 !
 ! A23   A(13,12,14)           116.0473         -DE/DX =    0.0                 !
 ! A24   A(13,12,15)           121.918          -DE/DX =    0.0001              !
 ! A25   A(14,12,15)           122.0294         -DE/DX =   -0.0001              !
 ! A26   A(11,15,16)            70.6079         -DE/DX =    0.0                 !
 ! A27   A(11,15,17)           126.4528         -DE/DX =    0.0                 !
 ! A28   A(12,15,16)           122.0257         -DE/DX =   -0.0001              !
 ! A29   A(12,15,17)           121.9186         -DE/DX =    0.0001              !
 ! A30   A(16,15,17)           116.0506         -DE/DX =    0.0                 !
 ! D1    D(5,1,2,3)            179.2178         -DE/DX =   -0.0001              !
 ! D2    D(5,1,2,6)             -1.9686         -DE/DX =    0.0                 !
 ! D3    D(9,1,2,3)              3.5261         -DE/DX =   -0.0001              !
 ! D4    D(9,1,2,6)           -177.6603         -DE/DX =    0.0                 !
 ! D5    D(2,1,9,4)             -5.3061         -DE/DX =    0.0001              !
 ! D6    D(2,1,9,10)           111.6553         -DE/DX =    0.0                 !
 ! D7    D(2,1,9,11)          -127.2177         -DE/DX =   -0.0001              !
 ! D8    D(5,1,9,4)            178.8191         -DE/DX =    0.0001              !
 ! D9    D(5,1,9,10)           -64.2196         -DE/DX =    0.0                 !
 ! D10   D(5,1,9,11)            56.9075         -DE/DX =   -0.0002              !
 ! D11   D(1,2,3,4)             -0.0162         -DE/DX =    0.0                 !
 ! D12   D(1,2,3,7)            178.845          -DE/DX =    0.0                 !
 ! D13   D(6,2,3,4)           -178.8612         -DE/DX =    0.0                 !
 ! D14   D(6,2,3,7)              0.0            -DE/DX =    0.0                 !
 ! D15   D(2,3,4,8)           -179.2218         -DE/DX =    0.0001              !
 ! D16   D(2,3,4,9)             -3.5007         -DE/DX =    0.0001              !
 ! D17   D(7,3,4,8)              1.9479         -DE/DX =    0.0                 !
 ! D18   D(7,3,4,9)            177.669          -DE/DX =    0.0                 !
 ! D19   D(3,4,9,1)              5.296          -DE/DX =   -0.0001              !
 ! D20   D(3,4,9,10)          -111.6643         -DE/DX =    0.0                 !
 ! D21   D(3,4,9,11)           127.2138         -DE/DX =    0.0002              !
 ! D22   D(8,4,9,1)           -178.8007         -DE/DX =   -0.0001              !
 ! D23   D(8,4,9,10)            64.239          -DE/DX =    0.0                 !
 ! D24   D(8,4,9,11)           -56.8829         -DE/DX =    0.0002              !
 ! D25   D(1,9,11,12)           43.8074         -DE/DX =    0.0001              !
 ! D26   D(1,9,11,15)           72.0057         -DE/DX =    0.0001              !
 ! D27   D(4,9,11,12)          -72.0104         -DE/DX =   -0.0001              !
 ! D28   D(4,9,11,15)          -43.8121         -DE/DX =   -0.0001              !
 ! D29   D(10,9,11,12)         165.9005         -DE/DX =    0.0                 !
 ! D30   D(10,9,11,15)        -165.9012         -DE/DX =    0.0                 !
 ! D31   D(9,11,12,13)         -26.6487         -DE/DX =    0.0001              !
 ! D32   D(9,11,12,14)        -135.287          -DE/DX =    0.0001              !
 ! D33   D(9,11,15,16)         135.4784         -DE/DX =   -0.0001              !
 ! D34   D(9,11,15,17)          26.8875         -DE/DX =   -0.0001              !
 ! D35   D(13,12,15,16)       -179.1385         -DE/DX =    0.0                 !
 ! D36   D(13,12,15,17)          0.0063         -DE/DX =    0.0                 !
 ! D37   D(14,12,15,16)         -0.007          -DE/DX =    0.0                 !
 ! D38   D(14,12,15,17)        179.1379         -DE/DX =    0.0                 !
 --------------------------------------------------------------------------------
 GradGradGradGradGradGradGradGradGradGradGradGradGradGradGradGradGradGrad

                          Input orientation:                          
 ---------------------------------------------------------------------
 Center     Atomic      Atomic             Coordinates (Angstroms)
 Number     Number       Type             X           Y           Z
 ---------------------------------------------------------------------
      1          6           0        1.973674   -1.391663    0.166628
      2          6           0        3.320478   -1.327827    0.059748
      3          6           0        3.744403    0.083537    0.068259
      4          6           0        2.655301    0.877730    0.179952
      5          1           0        1.362871   -2.282955    0.177157
      6          1           0        3.999793   -2.166775   -0.002470
      7          1           0        4.773762    0.409962    0.013068
      8          1           0        2.636570    1.957883    0.202344
      9          6           0        1.403911    0.016518    0.166795
     10          1           0        0.835145    0.192759   -0.759910
     11          1           0        0.743915    0.209858    1.016032
     12          6           0        2.179340   -0.929042    3.123600
     13          1           0        2.894542   -1.739971    3.052756
     14          1           0        1.135589   -1.219132    3.201977
     15          6           0        2.560178    0.346907    3.131084
     16          1           0        1.845862    1.160716    3.215826
     17          1           0        3.603052    0.633894    3.066579
 ---------------------------------------------------------------------
                    Distance matrix (angstroms):
                    1          2          3          4          5
     1  C    0.000000
     2  C    1.352545   0.000000
     3  C    2.306810   1.473680   0.000000
     4  C    2.369586   2.306814   1.352539   0.000000
     5  H    1.080552   2.181348   3.359143   3.414720   0.000000
     6  H    2.175902   1.081283   2.265862   3.333159   2.645584
     7  H    3.333156   2.265860   1.081286   2.175899   4.348897
     8  H    3.414699   3.359159   2.181386   1.080547   4.428053
     9  C    1.519080   2.343491   2.343524   1.519157   2.299863
    10  H    2.159888   3.026698   3.026809   2.159975   2.699213
    11  H    2.190585   3.149227   3.149152   2.190542   2.702025
    12  C    3.000000   3.293693   3.579085   3.486550   3.343835
    13  H    3.049434   3.051127   3.599259   3.893918   3.303016
    14  H    3.153648   3.828727   4.280543   3.979823   3.214485
    15  C    3.486346   3.579929   3.294336   3.000000   4.132239
    16  H    3.978515   4.281141   3.830399   3.154648   4.617972
    17  H    3.894543   3.601281   3.051687   3.048000   4.677090
                    6          7          8          9         10
     6  H    0.000000
     7  H    2.690510   0.000000
     8  H    4.348923   2.645652   0.000000
     9  C    3.396177   3.396223   2.299916   0.000000
    10  H    4.019466   4.019623   2.699394   1.101516   0.000000
    11  H    4.157700   4.157600   2.701818   1.092784   1.778366
    12  C    3.823394   4.266072   4.132449   3.199698   4.259923
    13  H    3.276910   4.170537   4.676059   3.692696   4.744785
    14  H    4.401155   5.104840   4.619975   3.288032   4.216663
    15  C    4.267346   3.824389   3.343441   3.198924   4.259029
    16  H    5.105785   4.403850   3.215863   3.286503   4.214851
    17  H    4.173752   3.277901   3.300133   3.691357   4.743197
                   11         12         13         14         15
    11  H    0.000000
    12  C    2.792737   0.000000
    13  H    3.546163   1.083577   0.000000
    14  H    2.640791   1.086145   1.840505   0.000000
    15  C    2.791243   1.331592   2.114946   2.118244   0.000000
    16  H    2.637709   2.118207   3.088739   2.483617   1.086146
    17  H    3.543897   2.114941   2.477380   3.088756   1.083563
                   16         17
    16  H    0.000000
    17  H    1.840525   0.000000
 Stoichiometry    C7H10
 Framework group  C1[X(C7H10)]
 Deg. of freedom    45
 Full point group                 C1      NOp   1
 Largest Abelian subgroup         C1      NOp   1
 Largest concise Abelian subgroup C1      NOp   1
                         Standard orientation:                         
 ---------------------------------------------------------------------
 Center     Atomic      Atomic             Coordinates (Angstroms)
 Number     Number       Type             X           Y           Z
 ---------------------------------------------------------------------
      1          6           0       -0.835219    1.184248   -0.340524
      2          6           0       -1.130247    0.738167    0.901792
      3          6           0       -1.130061   -0.735512    0.904050
      4          6           0       -0.835274   -1.185335   -0.336966
      5          1           0       -0.770781    2.213009   -0.664701
      6          1           0       -1.319432    1.347897    1.774496
      7          1           0       -1.319093   -1.342609    1.778623
      8          1           0       -0.770588   -2.215039   -0.658072
      9          6           0       -0.701990   -0.001911   -1.280141
     10          1           0       -1.531178   -0.002950   -2.005251
     11          1           0        0.239080   -0.002855   -1.835626
     12          6           0        2.077428    0.666080    0.157458
     13          1           0        1.875638    1.238740    1.054944
     14          1           0        2.292783    1.242357   -0.737662
     15          6           0        2.077732   -0.665512    0.157181
     16          1           0        2.293249   -1.241260   -0.738241
     17          1           0        1.876108   -1.238640    1.054389
 ---------------------------------------------------------------------
 Rotational constants (GHZ):           3.6704828           2.0863179           1.9533526

 **********************************************************************

            Population analysis using the SCF Density.

 **********************************************************************

 Orbital symmetries:
       Occupied  (A) (A) (A) (A) (A) (A) (A) (A) (A) (A) (A) (A)
                 (A) (A) (A) (A) (A) (A) (A) (A) (A) (A) (A) (A)
                 (A) (A)
       Virtual   (A) (A) (A) (A) (A) (A) (A) (A) (A) (A) (A) (A)
                 (A) (A) (A) (A) (A) (A) (A) (A) (A) (A) (A) (A)
                 (A) (A) (A) (A) (A) (A) (A) (A) (A) (A) (A) (A)
                 (A) (A) (A) (A) (A) (A) (A) (A) (A) (A) (A) (A)
                 (A) (A) (A) (A) (A) (A) (A) (A) (A)
 The electronic state is 1-A.
 Alpha  occ. eigenvalues --  -10.12209 -10.11841 -10.11817 -10.11697 -10.11580
 Alpha  occ. eigenvalues --  -10.10491 -10.10393  -0.85245  -0.74605  -0.70226
 Alpha  occ. eigenvalues --   -0.69801  -0.56483  -0.54877  -0.52600  -0.51265
 Alpha  occ. eigenvalues --   -0.45781  -0.43298  -0.40993  -0.40009  -0.37419
 Alpha  occ. eigenvalues --   -0.35661  -0.35441  -0.34039  -0.29764  -0.24782
 Alpha  occ. eigenvalues --   -0.21369
 Alpha virt. eigenvalues --   -0.00732   0.03826   0.09684   0.12642   0.15015
 Alpha virt. eigenvalues --    0.16531   0.17994   0.18016   0.19386   0.19531
 Alpha virt. eigenvalues --    0.19884   0.21673   0.22397   0.26015   0.28658
 Alpha virt. eigenvalues --    0.37772   0.38635   0.40744   0.47529   0.64954
 Alpha virt. eigenvalues --    0.66044   0.69860   0.70273   0.72334   0.73401
 Alpha virt. eigenvalues --    0.74897   0.76470   0.79324   0.80977   0.82853
 Alpha virt. eigenvalues --    0.84082   0.85207   0.86192   0.94209   0.96602
 Alpha virt. eigenvalues --    0.97029   0.99675   1.02543   1.03276   1.04783
 Alpha virt. eigenvalues --    1.06164   1.06869   1.08342   1.09935   1.11425
 Alpha virt. eigenvalues --    1.14098   1.29527   1.36587   1.37388   1.39051
 Alpha virt. eigenvalues --    1.41381   1.53272   1.59353   1.85737   1.93581
 Alpha virt. eigenvalues --    2.10041   2.15915
          Condensed to atoms (all electrons):
               1          2          3          4          5          6
     1  C    5.230706   0.526651  -0.110385  -0.113148   0.390078  -0.037299
     2  C    0.526651   5.168356   0.394645  -0.110384  -0.035543   0.387139
     3  C   -0.110385   0.394645   5.168324   0.526660   0.003950  -0.032448
     4  C   -0.113148  -0.110384   0.526660   5.230720   0.002844   0.003546
     5  H    0.390078  -0.035543   0.003950   0.002844   0.496964  -0.002093
     6  H   -0.037299   0.387139  -0.032448   0.003546  -0.002093   0.502663
     7  H    0.003546  -0.032449   0.387140  -0.037300  -0.000052  -0.000829
     8  H    0.002843   0.003950  -0.035539   0.390078  -0.000033  -0.000052
     9  C    0.334731  -0.123529  -0.123516   0.334732  -0.032604   0.004541
    10  H   -0.036200   0.001802   0.001804  -0.036192   0.000032  -0.000103
    11  H   -0.033704   0.002736   0.002735  -0.033712  -0.000439  -0.000074
    12  C    0.001269  -0.001368  -0.002066  -0.002909  -0.000378   0.000019
    13  H    0.000951   0.001321  -0.000119  -0.000040  -0.000001   0.000097
    14  H    0.000591   0.000023   0.000002  -0.000019   0.000093   0.000000
    15  C   -0.002911  -0.002063  -0.001373   0.001255  -0.000027  -0.000015
    16  H   -0.000020   0.000002   0.000024   0.000588   0.000000  -0.000000
    17  H   -0.000040  -0.000120   0.001319   0.000962  -0.000000  -0.000001
               7          8          9         10         11         12
     1  C    0.003546   0.002843   0.334731  -0.036200  -0.033704   0.001269
     2  C   -0.032449   0.003950  -0.123529   0.001802   0.002736  -0.001368
     3  C    0.387140  -0.035539  -0.123516   0.001804   0.002735  -0.002066
     4  C   -0.037300   0.390078   0.334732  -0.036192  -0.033712  -0.002909
     5  H   -0.000052  -0.000033  -0.032604   0.000032  -0.000439  -0.000378
     6  H   -0.000829  -0.000052   0.004541  -0.000103  -0.000074   0.000019
     7  H    0.502667  -0.002093   0.004540  -0.000103  -0.000074  -0.000015
     8  H   -0.002093   0.496954  -0.032601   0.000032  -0.000439  -0.000027
     9  C    0.004540  -0.032601   5.402566   0.343852   0.351498  -0.005610
    10  H   -0.000103   0.000032   0.343852   0.524754  -0.023707   0.000257
    11  H   -0.000074  -0.000439   0.351498  -0.023707   0.508270   0.002315
    12  C   -0.000015  -0.000027  -0.005610   0.000257   0.002315   5.142573
    13  H   -0.000001  -0.000000   0.000057   0.000001  -0.000026   0.382001
    14  H   -0.000000   0.000000  -0.000035   0.000001   0.000805   0.380472
    15  C    0.000019  -0.000378  -0.005633   0.000257   0.002329   0.561597
    16  H    0.000000   0.000092  -0.000038   0.000001   0.000816  -0.048480
    17  H    0.000096  -0.000000   0.000057   0.000001  -0.000026  -0.044672
              13         14         15         16         17
     1  C    0.000951   0.000591  -0.002911  -0.000020  -0.000040
     2  C    0.001321   0.000023  -0.002063   0.000002  -0.000120
     3  C   -0.000119   0.000002  -0.001373   0.000024   0.001319
     4  C   -0.000040  -0.000019   0.001255   0.000588   0.000962
     5  H   -0.000001   0.000093  -0.000027   0.000000  -0.000000
     6  H    0.000097   0.000000  -0.000015  -0.000000  -0.000001
     7  H   -0.000001  -0.000000   0.000019   0.000000   0.000096
     8  H   -0.000000   0.000000  -0.000378   0.000092  -0.000000
     9  C    0.000057  -0.000035  -0.005633  -0.000038   0.000057
    10  H    0.000001   0.000001   0.000257   0.000001   0.000001
    11  H   -0.000026   0.000805   0.002329   0.000816  -0.000026
    12  C    0.382001   0.380472   0.561597  -0.048480  -0.044672
    13  H    0.510124  -0.032158  -0.044678   0.003327  -0.005240
    14  H   -0.032158   0.529008  -0.048472  -0.005393   0.003327
    15  C   -0.044678  -0.048472   5.142684   0.380467   0.382001
    16  H    0.003327  -0.005393   0.380467   0.529039  -0.032156
    17  H   -0.005240   0.003327   0.382001  -0.032156   0.510101
 Mulliken charges:
               1
     1  C   -0.157659
     2  C   -0.181169
     3  C   -0.181158
     4  C   -0.157680
     5  H    0.177209
     6  H    0.174910
     7  H    0.174907
     8  H    0.177211
     9  C   -0.453008
    10  H    0.223512
    11  H    0.220698
    12  C   -0.364977
    13  H    0.184383
    14  H    0.171757
    15  C   -0.365059
    16  H    0.171732
    17  H    0.184393
 Sum of Mulliken charges =  -0.00000
 Mulliken charges with hydrogens summed into heavy atoms:
               1
     1  C    0.019549
     2  C   -0.006259
     3  C   -0.006250
     4  C    0.019530
     9  C   -0.008798
    12  C   -0.008838
    15  C   -0.008934
 Electronic spatial extent (au):  <R**2>=            775.7921
 Charge=              0.0000 electrons
 Dipole moment (field-independent basis, Debye):
    X=             -0.2908    Y=             -0.0004    Z=             -0.4471  Tot=              0.5333
 Quadrupole moment (field-independent basis, Debye-Ang):
   XX=            -48.5771   YY=            -40.2383   ZZ=            -39.5812
   XY=             -0.0018   XZ=             -1.2481   YZ=              0.0012
 Traceless Quadrupole moment (field-independent basis, Debye-Ang):
   XX=             -5.7782   YY=              2.5606   ZZ=              3.2177
   XY=             -0.0018   XZ=             -1.2481   YZ=              0.0012
 Octapole moment (field-independent basis, Debye-Ang**2):
  XXX=             -4.4874  YYY=             -0.0000  ZZZ=              1.5729  XYY=              0.5969
  XXY=              0.0007  XXZ=             -3.2447  XZZ=             -2.2314  YZZ=              0.0026
  YYZ=             -0.0355  XYZ=             -0.0039
 Hexadecapole moment (field-independent basis, Debye-Ang**3):
 XXXX=           -633.2111 YYYY=           -253.1633 ZZZZ=           -215.7058 XXXY=             -0.0042
 XXXZ=             -8.2929 YYYX=             -0.0104 YYYZ=             -0.0066 ZZZX=             -4.3486
 ZZZY=             -0.0060 XXYY=           -138.2771 XXZZ=           -122.5081 YYZZ=            -75.6861
 XXYZ=              0.0136 YYXZ=             -2.5682 ZZXY=             -0.0015
 N-N= 2.786796294202D+02 E-N=-1.184667095404D+03  KE= 2.687495998383D+02
 1\1\GINC-TACHAS\FOpt\RB3LYP\3-21G\C7H10\LEOS\20-Oct-2019\0\\# opt=modr
 edundant b3lyp/3-21g geom=connectivity\\Title Card Required\\0,1\C,1.9
 736740043,-1.3916633048,0.1666282916\C,3.320477852,-1.3278266385,0.059
 7481529\C,3.74440315,0.0835371026,0.0682590092\C,2.6553007284,0.877730
 1128,0.1799520175\H,1.3628713592,-2.2829553075,0.1771568924\H,3.999792
 573,-2.1667748823,-0.0024698131\H,4.773761855,0.4099618242,0.013067751
 3\H,2.6365701898,1.957883096,0.2023438212\C,1.4039105175,0.0165177062,
 0.1667952507\H,0.8351451948,0.1927594635,-0.7599098408\H,0.7439154355,
 0.2098584261,1.0160321045\C,2.1793399961,-0.9290417507,3.1236001738\H,
 2.8945421925,-1.7399713736,3.0527556495\H,1.13558897,-1.2191320268,3.2
 019766785\C,2.5601778016,0.3469069412,3.1310837704\H,1.8458619368,1.16
 07157647,3.215826383\H,3.6030520638,0.6338935868,3.0665785874\\Version
 =ES64L-G16RevB.01\State=1-A\HF=-271.1943674\RMSD=8.223e-09\RMSF=1.129e
 -03\Dipole=-0.1503333,0.045871,-0.1390017\Quadrupole=2.4664294,1.95467
 01,-4.4210995,-0.1697132,0.0907243,0.0099178\PG=C01 [X(C7H10)]\\@


 AND HERE I AM, FOR ALL MY LORE,
 THE WRETCHED FOOL I WAS BEFORE.
 CALLED MASTER OF ARTS, AND DOCTOR TO BOOT,
 FOR TEN YEARS ALMOST I CONFUTE
 AND UP AND DOWN, WHEREVER IT GOES
 I DRAG MY STUDENTS BY THE NOSE --
 AND SEE THAT FOR ALL OUR SCIENCE AND ART
 WE CAN KNOW NOTHING.  IT BURNS MY HEART.

                                       -- FAUST
 Job cpu time:       0 days  0 hours  6 minutes 44.9 seconds.
 Elapsed time:       0 days  0 hours  3 minutes 23.3 seconds.
 File lengths (MBytes):  RWF=     10 Int=      0 D2E=      0 Chk=      2 Scr=      1
 Normal termination of Gaussian 16 at Sun Oct 20 18:42:21 2019.
