 Entering Gaussian System, Link 0=g16
 Input=C3.1.com
 Output=C3.1.log
 Initial command:
 /opt/g16/l1.exe "/tmp/Gau-32387.inp" -scrdir="/tmp/"
 Entering Link 1 = /opt/g16/l1.exe PID=     32389.
  
 Copyright (c) 1988-2017, Gaussian, Inc.  All Rights Reserved.
  
 This is part of the Gaussian(R) 16 program.  It is based on
 the Gaussian(R) 09 system (copyright 2009, Gaussian, Inc.),
 the Gaussian(R) 03 system (copyright 2003, Gaussian, Inc.),
 the Gaussian(R) 98 system (copyright 1998, Gaussian, Inc.),
 the Gaussian(R) 94 system (copyright 1995, Gaussian, Inc.),
 the Gaussian 92(TM) system (copyright 1992, Gaussian, Inc.),
 the Gaussian 90(TM) system (copyright 1990, Gaussian, Inc.),
 the Gaussian 88(TM) system (copyright 1988, Gaussian, Inc.),
 the Gaussian 86(TM) system (copyright 1986, Carnegie Mellon
 University), and the Gaussian 82(TM) system (copyright 1983,
 Carnegie Mellon University). Gaussian is a federally registered
 trademark of Gaussian, Inc.
  
 This software contains proprietary and confidential information,
 including trade secrets, belonging to Gaussian, Inc.
  
 This software is provided under written license and may be
 used, copied, transmitted, or stored only in accord with that
 written license.
  
 The following legend is applicable only to US Government
 contracts under FAR:
  
                    RESTRICTED RIGHTS LEGEND
  
 Use, reproduction and disclosure by the US Government is
 subject to restrictions as set forth in subparagraphs (a)
 and (c) of the Commercial Computer Software - Restricted
 Rights clause in FAR 52.227-19.
  
 Gaussian, Inc.
 340 Quinnipiac St., Bldg. 40, Wallingford CT 06492
  
  
 ---------------------------------------------------------------
 Warning -- This program may not be used in any manner that
 competes with the business of Gaussian, Inc. or will provide
 assistance to any competitor of Gaussian, Inc.  The licensee
 of this program is prohibited from giving any competitor of
 Gaussian, Inc. access to this program.  By using this program,
 the user acknowledges that Gaussian, Inc. is engaged in the
 business of creating and licensing software in the field of
 computational chemistry and represents and warrants to the
 licensee that it is not a competitor of Gaussian, Inc. and that
 it will not use this program in any manner prohibited above.
 ---------------------------------------------------------------
  

 Cite this work as:
 Gaussian 16, Revision B.01,
 M. J. Frisch, G. W. Trucks, H. B. Schlegel, G. E. Scuseria, 
 M. A. Robb, J. R. Cheeseman, G. Scalmani, V. Barone, 
 G. A. Petersson, H. Nakatsuji, X. Li, M. Caricato, A. V. Marenich, 
 J. Bloino, B. G. Janesko, R. Gomperts, B. Mennucci, H. P. Hratchian, 
 J. V. Ortiz, A. F. Izmaylov, J. L. Sonnenberg, D. Williams-Young, 
 F. Ding, F. Lipparini, F. Egidi, J. Goings, B. Peng, A. Petrone, 
 T. Henderson, D. Ranasinghe, V. G. Zakrzewski, J. Gao, N. Rega, 
 G. Zheng, W. Liang, M. Hada, M. Ehara, K. Toyota, R. Fukuda, 
 J. Hasegawa, M. Ishida, T. Nakajima, Y. Honda, O. Kitao, H. Nakai, 
 T. Vreven, K. Throssell, J. A. Montgomery, Jr., J. E. Peralta, 
 F. Ogliaro, M. J. Bearpark, J. J. Heyd, E. N. Brothers, K. N. Kudin, 
 V. N. Staroverov, T. A. Keith, R. Kobayashi, J. Normand, 
 K. Raghavachari, A. P. Rendell, J. C. Burant, S. S. Iyengar, 
 J. Tomasi, M. Cossi, J. M. Millam, M. Klene, C. Adamo, R. Cammi, 
 J. W. Ochterski, R. L. Martin, K. Morokuma, O. Farkas, 
 J. B. Foresman, and D. J. Fox, Gaussian, Inc., Wallingford CT, 2016.
 
 ******************************************
 Gaussian 16:  ES64L-G16RevB.01 20-Dec-2017
                20-Oct-2019 
 ******************************************
 %nprocshared=2
 Will use up to    2 processors via shared memory.
 %mem=6GB
 %chk=C3.chk
 ------------------------------------------------
 # opt=modredundant b3lyp/3-21g geom=connectivity
 ------------------------------------------------
 1/18=120,19=15,26=3,38=1,57=2/1,3;
 2/9=110,12=2,17=6,18=5,40=1/2;
 3/5=5,11=2,25=1,30=1,71=1,74=-5/1,2,3;
 4//1;
 5/5=2,38=5/2;
 6/7=2,8=2,9=2,10=2,28=1/1;
 7//1,2,3,16;
 1/18=20,19=15,26=3/3(2);
 2/9=110/2;
 99//99;
 2/9=110/2;
 3/5=5,11=2,25=1,30=1,71=1,74=-5/1,2,3;
 4/5=5,16=3,69=1/1;
 5/5=2,38=5/2;
 7//1,2,3,16;
 1/18=20,19=15,26=3/3(-5);
 2/9=110/2;
 6/7=2,8=2,9=2,10=2,19=2,28=1/1;
 99/9=1/99;
 -------------------
 Title Card Required
 -------------------
 Symbolic Z-matrix:
 Charge =  0 Multiplicity = 1
 C                     1.91428  -1.31213   0.01839 
 C                     3.31603  -1.31213   0.01839 
 C                     3.74002   0.05867   0.01839 
 C                     2.58297   0.85012   0.01829 
 H                     1.21269  -2.14536   0.01849 
 H                     3.9604   -2.18483   0.01842 
 H                     4.76459   0.41516   0.01837 
 H                     2.47405   1.93389   0.01814 
 C                     1.47455   0.00838   0.01838 
 H                     0.8843    0.19084  -0.85523 
 H                     0.88443   0.19095   0.89207 
 C                     2.20741  -1.00697   3.08938 
 H                     2.99869  -1.72739   3.46377 
 H                     1.21011  -1.24598   3.46585 
 C                     2.59099   0.39866   3.08523 
 H                     1.83702   1.0986    3.48658 
 H                     3.6256    0.61719   3.4845 
 
 Add virtual bond connecting atoms C12        and H11        Dist= 5.35D+00.
 Add virtual bond connecting atoms C15        and H11        Dist= 5.27D+00.
 Add virtual bond connecting atoms H16        and H11        Dist= 5.50D+00.
 The following ModRedundant input section has been read:
 B       4      15 F                                                           
 B       1      12 F                                                           
 

 GradGradGradGradGradGradGradGradGradGradGradGradGradGradGradGradGradGrad
 Berny optimization.
 Initialization pass.
                           ----------------------------
                           !    Initial Parameters    !
                           ! (Angstroms and Degrees)  !
 --------------------------                            --------------------------
 ! Name  Definition              Value          Derivative Info.                !
 --------------------------------------------------------------------------------
 ! R1    R(1,2)                  1.4018         estimate D2E/DX2                !
 ! R2    R(1,5)                  1.0893         estimate D2E/DX2                !
 ! R3    R(1,9)                  1.3918         estimate D2E/DX2                !
 ! R4    R(1,12)                 3.1            Frozen                          !
 ! R5    R(2,3)                  1.4349         estimate D2E/DX2                !
 ! R6    R(2,6)                  1.0848         estimate D2E/DX2                !
 ! R7    R(3,4)                  1.4018         estimate D2E/DX2                !
 ! R8    R(3,7)                  1.0848         estimate D2E/DX2                !
 ! R9    R(4,8)                  1.0892         estimate D2E/DX2                !
 ! R10   R(4,9)                  1.3918         estimate D2E/DX2                !
 ! R11   R(4,15)                 3.1            Frozen                          !
 ! R12   R(9,10)                 1.07           estimate D2E/DX2                !
 ! R13   R(9,11)                 1.07           estimate D2E/DX2                !
 ! R14   R(11,12)                2.8308         estimate D2E/DX2                !
 ! R15   R(11,15)                2.7867         estimate D2E/DX2                !
 ! R16   R(11,16)                2.9091         estimate D2E/DX2                !
 ! R17   R(12,13)                1.1337         estimate D2E/DX2                !
 ! R18   R(12,14)                1.0925         estimate D2E/DX2                !
 ! R19   R(12,15)                1.457          estimate D2E/DX2                !
 ! R20   R(15,16)                1.1043         estimate D2E/DX2                !
 ! R21   R(15,17)                1.1303         estimate D2E/DX2                !
 ! A1    A(2,1,5)              130.0976         estimate D2E/DX2                !
 ! A2    A(2,1,9)              108.4177         estimate D2E/DX2                !
 ! A3    A(5,1,9)              121.4847         estimate D2E/DX2                !
 ! A4    A(1,2,3)              107.1873         estimate D2E/DX2                !
 ! A5    A(1,2,6)              126.4408         estimate D2E/DX2                !
 ! A6    A(3,2,6)              126.372          estimate D2E/DX2                !
 ! A7    A(2,3,4)              107.1858         estimate D2E/DX2                !
 ! A8    A(2,3,7)              126.3724         estimate D2E/DX2                !
 ! A9    A(4,3,7)              126.4419         estimate D2E/DX2                !
 ! A10   A(3,4,8)              130.1121         estimate D2E/DX2                !
 ! A11   A(3,4,9)              108.4137         estimate D2E/DX2                !
 ! A12   A(8,4,9)              121.4742         estimate D2E/DX2                !
 ! A13   A(1,9,4)              108.7956         estimate D2E/DX2                !
 ! A14   A(1,9,10)             109.6383         estimate D2E/DX2                !
 ! A15   A(1,9,11)             109.6412         estimate D2E/DX2                !
 ! A16   A(4,9,10)             109.6414         estimate D2E/DX2                !
 ! A17   A(4,9,11)             109.6385         estimate D2E/DX2                !
 ! A18   A(10,9,11)            109.4712         estimate D2E/DX2                !
 ! A19   A(9,11,12)            107.6885         estimate D2E/DX2                !
 ! A20   A(9,11,15)            108.5174         estimate D2E/DX2                !
 ! A21   A(9,11,16)            126.9325         estimate D2E/DX2                !
 ! A22   A(12,11,16)            44.4972         estimate D2E/DX2                !
 ! A23   A(11,12,13)           148.3675         estimate D2E/DX2                !
 ! A24   A(11,12,14)            86.1831         estimate D2E/DX2                !
 ! A25   A(13,12,14)           112.602          estimate D2E/DX2                !
 ! A26   A(13,12,15)           115.4827         estimate D2E/DX2                !
 ! A27   A(14,12,15)           116.8961         estimate D2E/DX2                !
 ! A28   A(11,15,17)           148.5367         estimate D2E/DX2                !
 ! A29   A(12,15,16)           115.5115         estimate D2E/DX2                !
 ! A30   A(12,15,17)           115.2441         estimate D2E/DX2                !
 ! A31   A(16,15,17)           111.9647         estimate D2E/DX2                !
 ! D1    D(5,1,2,3)           -179.9933         estimate D2E/DX2                !
 ! D2    D(5,1,2,6)              0.0051         estimate D2E/DX2                !
 ! D3    D(9,1,2,3)              0.0004         estimate D2E/DX2                !
 ! D4    D(9,1,2,6)            179.9987         estimate D2E/DX2                !
 ! D5    D(2,1,9,4)              0.0039         estimate D2E/DX2                !
 ! D6    D(2,1,9,10)           119.9009         estimate D2E/DX2                !
 ! D7    D(2,1,9,11)          -119.8913         estimate D2E/DX2                !
 ! D8    D(5,1,9,4)            179.9982         estimate D2E/DX2                !
 ! D9    D(5,1,9,10)           -60.1048         estimate D2E/DX2                !
 ! D10   D(5,1,9,11)            60.103          estimate D2E/DX2                !
 ! D11   D(1,2,3,4)             -0.0044         estimate D2E/DX2                !
 ! D12   D(1,2,3,7)           -179.9984         estimate D2E/DX2                !
 ! D13   D(6,2,3,4)            179.9972         estimate D2E/DX2                !
 ! D14   D(6,2,3,7)              0.0033         estimate D2E/DX2                !
 ! D15   D(2,3,4,8)           -179.9922         estimate D2E/DX2                !
 ! D16   D(2,3,4,9)              0.0069         estimate D2E/DX2                !
 ! D17   D(7,3,4,8)              0.0017         estimate D2E/DX2                !
 ! D18   D(7,3,4,9)           -179.9992         estimate D2E/DX2                !
 ! D19   D(3,4,9,1)             -0.0067         estimate D2E/DX2                !
 ! D20   D(3,4,9,10)          -119.9018         estimate D2E/DX2                !
 ! D21   D(3,4,9,11)           119.8901         estimate D2E/DX2                !
 ! D22   D(8,4,9,1)            179.9924         estimate D2E/DX2                !
 ! D23   D(8,4,9,10)            60.0973         estimate D2E/DX2                !
 ! D24   D(8,4,9,11)           -60.1107         estimate D2E/DX2                !
 ! D25   D(1,9,11,12)           43.4613         estimate D2E/DX2                !
 ! D26   D(1,9,11,15)           75.1075         estimate D2E/DX2                !
 ! D27   D(1,9,11,16)           89.2837         estimate D2E/DX2                !
 ! D28   D(4,9,11,12)          -75.9175         estimate D2E/DX2                !
 ! D29   D(4,9,11,15)          -44.2713         estimate D2E/DX2                !
 ! D30   D(4,9,11,16)          -30.0951         estimate D2E/DX2                !
 ! D31   D(10,9,11,12)         163.7708         estimate D2E/DX2                !
 ! D32   D(10,9,11,15)        -164.5829         estimate D2E/DX2                !
 ! D33   D(10,9,11,16)        -150.4067         estimate D2E/DX2                !
 ! D34   D(9,11,12,13)         -15.1026         estimate D2E/DX2                !
 ! D35   D(9,11,12,14)        -143.8666         estimate D2E/DX2                !
 ! D36   D(16,11,12,13)       -140.223          estimate D2E/DX2                !
 ! D37   D(16,11,12,14)         91.013          estimate D2E/DX2                !
 ! D38   D(9,11,15,17)          23.3756         estimate D2E/DX2                !
 ! D39   D(13,12,15,16)       -134.7919         estimate D2E/DX2                !
 ! D40   D(13,12,15,17)         -1.6967         estimate D2E/DX2                !
 ! D41   D(14,12,15,16)          1.1916         estimate D2E/DX2                !
 ! D42   D(14,12,15,17)        134.2869         estimate D2E/DX2                !
 --------------------------------------------------------------------------------
 Trust Radius=3.00D-01 FncErr=1.00D-07 GrdErr=1.00D-06 EigMax=2.50D+02 EigMin=1.00D-04
 Number of steps in this run=    102 maximum allowed number of steps=    102.
 GradGradGradGradGradGradGradGradGradGradGradGradGradGradGradGradGradGrad

                          Input orientation:                          
 ---------------------------------------------------------------------
 Center     Atomic      Atomic             Coordinates (Angstroms)
 Number     Number       Type             X           Y           Z
 ---------------------------------------------------------------------
      1          6           0        1.914276   -1.312128    0.018394
      2          6           0        3.316026   -1.312128    0.018394
      3          6           0        3.740024    0.058668    0.018394
      4          6           0        2.582967    0.850121    0.018290
      5          1           0        1.212688   -2.145361    0.018492
      6          1           0        3.960399   -2.184834    0.018419
      7          1           0        4.764587    0.415160    0.018369
      8          1           0        2.474045    1.933893    0.018143
      9          6           0        1.474549    0.008380    0.018385
     10          1           0        0.884296    0.190842   -0.855234
     11          1           0        0.884427    0.190951    0.892069
     12          6           0        2.207412   -1.006966    3.089378
     13          1           0        2.998686   -1.727388    3.463766
     14          1           0        1.210108   -1.245980    3.465854
     15          6           0        2.590987    0.398664    3.085230
     16          1           0        1.837021    1.098595    3.486585
     17          1           0        3.625600    0.617187    3.484497
 ---------------------------------------------------------------------
                    Distance matrix (angstroms):
                    1          2          3          4          5
     1  C    0.000000
     2  C    1.401750   0.000000
     3  C    2.283076   1.434871   0.000000
     4  C    2.263287   2.283133   1.401848   0.000000
     5  H    1.089267   2.262368   3.353382   3.294021   0.000000
     6  H    2.224463   1.084819   2.254300   3.332907   2.747995
     7  H    3.332836   2.254297   1.084811   2.224558   4.378613
     8  H    3.293933   3.353444   2.262559   1.089232   4.269817
     9  C    1.391798   2.266005   2.266033   1.391804   2.169602
    10  H    2.020644   2.989223   2.989294   2.020687   2.515767
    11  H    2.020679   2.989185   2.989187   2.020652   2.515799
    12  C    3.100000   3.279191   3.593803   3.608518   3.422830
    13  H    3.635791   3.484786   3.950971   4.322925   3.903128
    14  H    3.519263   4.040328   4.470745   4.261934   3.562751
    15  C    3.576343   3.585802   3.292623   3.100000   4.216237
    16  H    4.224441   4.475197   4.090381   3.556296   4.789646
    17  H    4.320273   3.978940   3.512678   3.627111   5.046485
                    6          7          8          9         10
     6  H    0.000000
     7  H    2.721523   0.000000
     8  H    4.378717   2.748296   0.000000
     9  C    3.315062   3.315090   2.169468   0.000000
    10  H    3.983656   3.983736   2.515614   1.070000   0.000000
    11  H    3.983619   3.983624   2.515647   1.070000   1.747303
    12  C    3.727081   4.241779   4.260544   3.316477   4.329590
    13  H    3.606184   4.424893   5.054953   4.148076   5.177259
    14  H    4.508920   5.222917   4.857555   3.678096   4.565349
    15  C    4.237344   3.759049   3.431855   3.286989   4.299214
    16  H    5.226645   4.589798   3.624032   3.653542   4.536859
    17  H    4.469576   3.654060   3.882706   4.124512   5.150706
                   11         12         13         14         15
    11  H    0.000000
    12  C    2.830806   0.000000
    13  H    3.842362   1.133706   0.000000
    14  H    2.965672   1.092464   1.852234   0.000000
    15  C    2.786655   1.457032   2.197637   2.180953   0.000000
    16  H    2.909083   2.174477   3.055514   2.427032   1.104289
    17  H    3.796892   2.192087   2.427032   3.050630   1.130305
                   16         17
    16  H    0.000000
    17  H    1.852234   0.000000
 Stoichiometry    C7H10
 Framework group  C1[X(C7H10)]
 Deg. of freedom    45
 Full point group                 C1      NOp   1
 Largest Abelian subgroup         C1      NOp   1
 Largest concise Abelian subgroup C1      NOp   1
                         Standard orientation:                         
 ---------------------------------------------------------------------
 Center     Atomic      Atomic             Coordinates (Angstroms)
 Number     Number       Type             X           Y           Z
 ---------------------------------------------------------------------
      1          6           0       -0.935127    1.119073   -0.404706
      2          6           0       -1.041884    0.765735    0.947573
      3          6           0       -1.060751   -0.667606    1.011074
      4          6           0       -0.964983   -1.141805   -0.304655
      5          1           0       -0.889756    2.102207   -0.871495
      6          1           0       -1.099481    1.447791    1.789187
      7          1           0       -1.135315   -1.270830    1.909616
      8          1           0       -0.946220   -2.163071   -0.682928
      9          6           0       -0.888714   -0.047889   -1.161772
     10          1           0       -1.713013   -0.067148   -1.843725
     11          1           0        0.029122   -0.084322   -1.710543
     12          6           0        2.107454    0.719947    0.035066
     13          1           0        2.413418    1.213966    1.008524
     14          1           0        2.556432    1.198951   -0.838119
     15          6           0        2.087871   -0.736872    0.050474
     16          1           0        2.552317   -1.228029   -0.822743
     17          1           0        2.409303   -1.213014    1.023901
 ---------------------------------------------------------------------
 Rotational constants (GHZ):           3.7433826           1.9781445           1.8729383
 Standard basis: 3-21G (6D, 7F)
 There are    83 symmetry adapted cartesian basis functions of A   symmetry.
 There are    83 symmetry adapted basis functions of A   symmetry.
    83 basis functions,   135 primitive gaussians,    83 cartesian basis functions
    26 alpha electrons       26 beta electrons
       nuclear repulsion energy       277.3346826906 Hartrees.
 NAtoms=   17 NActive=   17 NUniq=   17 SFac= 1.00D+00 NAtFMM=   60 NAOKFM=F Big=F
 Integral buffers will be    131072 words long.
 Raffenetti 2 integral format.
 Two-electron integral symmetry is turned on.
 One-electron integrals computed using PRISM.
 NBasis=    83 RedAO= T EigKep=  4.14D-03  NBF=    83
 NBsUse=    83 1.00D-06 EigRej= -1.00D+00 NBFU=    83
 ExpMin= 1.83D-01 ExpMax= 1.72D+02 ExpMxC= 1.72D+02 IAcc=3 IRadAn=         5 AccDes= 0.00D+00
 Harris functional with IExCor=  402 and IRadAn=       5 diagonalized for initial guess.
 HarFok:  IExCor=  402 AccDes= 0.00D+00 IRadAn=         5 IDoV= 1 UseB2=F ITyADJ=14
 ICtDFT=  3500011 ScaDFX=  1.000000  1.000000  1.000000  1.000000
 FoFCou: FMM=F IPFlag=           0 FMFlag=      100000 FMFlg1=           0
         NFxFlg=           0 DoJE=T BraDBF=F KetDBF=T FulRan=T
         wScrn=  0.000000 ICntrl=       500 IOpCl=  0 I1Cent=   200000004 NGrid=           0
         NMat0=    1 NMatS0=      1 NMatT0=    0 NMatD0=    1 NMtDS0=    0 NMtDT0=    0
 Petite list used in FoFCou.
 Keep R1 ints in memory in canonical form, NReq=7891700.
 Requested convergence on RMS density matrix=1.00D-08 within 128 cycles.
 Requested convergence on MAX density matrix=1.00D-06.
 Requested convergence on             energy=1.00D-06.
 No special actions if energy rises.
 Integral accuracy reduced to 1.0D-05 until final iterations.
 Initial convergence to 1.0D-05 achieved.  Increase integral accuracy.
 SCF Done:  E(RB3LYP) =  -271.123698954     A.U. after   14 cycles
            NFock= 14  Conv=0.55D-08     -V/T= 2.0089

 **********************************************************************

            Population analysis using the SCF Density.

 **********************************************************************

 Orbital symmetries:
       Occupied  (A) (A) (A) (A) (A) (A) (A) (A) (A) (A) (A) (A)
                 (A) (A) (A) (A) (A) (A) (A) (A) (A) (A) (A) (A)
                 (A) (A)
       Virtual   (A) (A) (A) (A) (A) (A) (A) (A) (A) (A) (A) (A)
                 (A) (A) (A) (A) (A) (A) (A) (A) (A) (A) (A) (A)
                 (A) (A) (A) (A) (A) (A) (A) (A) (A) (A) (A) (A)
                 (A) (A) (A) (A) (A) (A) (A) (A) (A) (A) (A) (A)
                 (A) (A) (A) (A) (A) (A) (A) (A) (A)
 The electronic state is 1-A.
 Alpha  occ. eigenvalues --  -10.12673 -10.12535 -10.11583 -10.11468 -10.11113
 Alpha  occ. eigenvalues --  -10.11091 -10.09805  -0.87596  -0.72569  -0.71585
 Alpha  occ. eigenvalues --   -0.69102  -0.56266  -0.53799  -0.53753  -0.51385
 Alpha  occ. eigenvalues --   -0.45916  -0.43816  -0.38619  -0.38611  -0.37282
 Alpha  occ. eigenvalues --   -0.36914  -0.35911  -0.33808  -0.28792  -0.23054
 Alpha  occ. eigenvalues --   -0.20150
 Alpha virt. eigenvalues --   -0.01745  -0.00652   0.09235   0.12483   0.14358
 Alpha virt. eigenvalues --    0.15270   0.18406   0.18704   0.19467   0.20216
 Alpha virt. eigenvalues --    0.20402   0.21789   0.26486   0.26740   0.26790
 Alpha virt. eigenvalues --    0.31988   0.39335   0.42790   0.48058   0.66174
 Alpha virt. eigenvalues --    0.67945   0.70558   0.70888   0.71694   0.75083
 Alpha virt. eigenvalues --    0.76129   0.77807   0.80135   0.82058   0.83746
 Alpha virt. eigenvalues --    0.84628   0.86377   0.91037   0.94624   0.94935
 Alpha virt. eigenvalues --    0.97380   0.99719   1.00115   1.03343   1.03879
 Alpha virt. eigenvalues --    1.04671   1.05754   1.07024   1.07435   1.09522
 Alpha virt. eigenvalues --    1.15087   1.16810   1.32087   1.33341   1.39044
 Alpha virt. eigenvalues --    1.39256   1.53465   1.64419   1.82750   1.91508
 Alpha virt. eigenvalues --    2.09379   2.25198
          Condensed to atoms (all electrons):
               1          2          3          4          5          6
     1  C    5.266145   0.538636  -0.118539  -0.142496   0.393323  -0.033719
     2  C    0.538636   5.158267   0.408654  -0.118357  -0.024315   0.387150
     3  C   -0.118539   0.408654   5.158390   0.538911   0.003291  -0.033309
     4  C   -0.142496  -0.118357   0.538911   5.264758   0.004839   0.003778
     5  H    0.393323  -0.024315   0.003291   0.004839   0.495885  -0.001475
     6  H   -0.033719   0.387150  -0.033309   0.003778  -0.001475   0.501254
     7  H    0.003780  -0.033343   0.387183  -0.033695  -0.000048  -0.001020
     8  H    0.004838   0.003289  -0.024287   0.393329  -0.000064  -0.000047
     9  C    0.308671  -0.143123  -0.143010   0.308625  -0.046270   0.005189
    10  H   -0.045034   0.003117   0.003125  -0.045144  -0.001075  -0.000114
    11  H   -0.043214   0.002455   0.002478  -0.043180  -0.001191  -0.000109
    12  C    0.011229   0.001893  -0.002830  -0.003631  -0.000131   0.000025
    13  H   -0.000278  -0.000155   0.000005   0.000039  -0.000004   0.000034
    14  H   -0.000160  -0.000030   0.000039   0.000074   0.000039   0.000001
    15  C   -0.003957  -0.002996   0.001859   0.011345  -0.000028  -0.000005
    16  H    0.000083   0.000042  -0.000015  -0.000142  -0.000000   0.000000
    17  H    0.000048   0.000008  -0.000204  -0.000319   0.000000  -0.000001
               7          8          9         10         11         12
     1  C    0.003780   0.004838   0.308671  -0.045034  -0.043214   0.011229
     2  C   -0.033343   0.003289  -0.143123   0.003117   0.002455   0.001893
     3  C    0.387183  -0.024287  -0.143010   0.003125   0.002478  -0.002830
     4  C   -0.033695   0.393329   0.308625  -0.045144  -0.043180  -0.003631
     5  H   -0.000048  -0.000064  -0.046270  -0.001075  -0.001191  -0.000131
     6  H   -0.001020  -0.000047   0.005189  -0.000114  -0.000109   0.000025
     7  H    0.501275  -0.001474   0.005188  -0.000115  -0.000109  -0.000004
     8  H   -0.001474   0.495553  -0.046238  -0.001076  -0.001206  -0.000025
     9  C    0.005188  -0.046238   5.593141   0.344212   0.336996  -0.004282
    10  H   -0.000115  -0.001076   0.344212   0.511786  -0.015165   0.000175
    11  H   -0.000109  -0.001206   0.336996  -0.015165   0.490832   0.005095
    12  C   -0.000004  -0.000025  -0.004282   0.000175   0.005095   5.244989
    13  H   -0.000001   0.000000   0.000043  -0.000000   0.000038   0.368833
    14  H   -0.000000  -0.000000  -0.000123   0.000003   0.000147   0.366436
    15  C    0.000024  -0.000140  -0.004876   0.000192   0.006085   0.477219
    16  H    0.000001   0.000029  -0.000182   0.000004   0.000191  -0.046917
    17  H    0.000026  -0.000004   0.000054  -0.000000   0.000036  -0.042976
              13         14         15         16         17
     1  C   -0.000278  -0.000160  -0.003957   0.000083   0.000048
     2  C   -0.000155  -0.000030  -0.002996   0.000042   0.000008
     3  C    0.000005   0.000039   0.001859  -0.000015  -0.000204
     4  C    0.000039   0.000074   0.011345  -0.000142  -0.000319
     5  H   -0.000004   0.000039  -0.000028  -0.000000   0.000000
     6  H    0.000034   0.000001  -0.000005   0.000000  -0.000001
     7  H   -0.000001  -0.000000   0.000024   0.000001   0.000026
     8  H    0.000000  -0.000000  -0.000140   0.000029  -0.000004
     9  C    0.000043  -0.000123  -0.004876  -0.000182   0.000054
    10  H   -0.000000   0.000003   0.000192   0.000004  -0.000000
    11  H    0.000038   0.000147   0.006085   0.000191   0.000036
    12  C    0.368833   0.366436   0.477219  -0.046917  -0.042976
    13  H    0.538937  -0.037378  -0.042711   0.003573  -0.004872
    14  H   -0.037378   0.537540  -0.045699  -0.004164   0.003527
    15  C   -0.042711  -0.045699   5.247827   0.364746   0.369235
    16  H    0.003573  -0.004164   0.364746   0.545168  -0.037936
    17  H   -0.004872   0.003527   0.369235  -0.037936   0.538663
 Mulliken charges:
               1
     1  C   -0.139357
     2  C   -0.181195
     3  C   -0.181740
     4  C   -0.138733
     5  H    0.177225
     6  H    0.172371
     7  H    0.172331
     8  H    0.177522
     9  C   -0.514014
    10  H    0.245108
    11  H    0.259822
    12  C   -0.375098
    13  H    0.173898
    14  H    0.179748
    15  C   -0.378120
    16  H    0.175518
    17  H    0.174713
 Sum of Mulliken charges =   0.00000
 Mulliken charges with hydrogens summed into heavy atoms:
               1
     1  C    0.037868
     2  C   -0.008823
     3  C   -0.009410
     4  C    0.038789
     9  C   -0.009084
    12  C   -0.021452
    15  C   -0.027889
 Electronic spatial extent (au):  <R**2>=            804.1196
 Charge=              0.0000 electrons
 Dipole moment (field-independent basis, Debye):
    X=              0.5081    Y=              0.0082    Z=             -0.6647  Tot=              0.8367
 Quadrupole moment (field-independent basis, Debye-Ang):
   XX=            -44.3487   YY=            -41.7102   ZZ=            -39.2560
   XY=              0.1462   XZ=              0.4640   YZ=              0.0655
 Traceless Quadrupole moment (field-independent basis, Debye-Ang):
   XX=             -2.5770   YY=              0.0614   ZZ=              2.5156
   XY=              0.1462   XZ=              0.4640   YZ=              0.0655
 Octapole moment (field-independent basis, Debye-Ang**2):
  XXX=             10.6942  YYY=              0.0147  ZZZ=              1.4910  XYY=              0.2711
  XXY=             -0.1296  XXZ=             -2.9285  XZZ=             -1.1256  YZZ=              0.1860
  YYZ=             -0.7142  XYZ=             -0.1313
 Hexadecapole moment (field-independent basis, Debye-Ang**3):
 XXXX=           -635.4289 YYYY=           -255.2265 ZZZZ=           -213.6838 XXXY=              0.7738
 XXXZ=              5.7562 YYYX=              0.6104 YYYZ=              0.4102 ZZZX=             -1.0090
 ZZZY=             -0.4976 XXYY=           -141.4880 XXZZ=           -126.5261 YYZZ=            -72.8057
 XXYZ=              0.1545 YYXZ=              0.1904 ZZXY=              0.0787
 N-N= 2.773346826906D+02 E-N=-1.181930060179D+03  KE= 2.687365128751D+02
 Calling FoFJK, ICntrl=      2127 FMM=F ISym2X=0 I1Cent= 0 IOpClX= 0 NMat=1 NMatS=1 NMatT=0.
 ***** Axes restored to original set *****
 -------------------------------------------------------------------
 Center     Atomic                   Forces (Hartrees/Bohr)
 Number     Number              X              Y              Z
 -------------------------------------------------------------------
      1        6           0.052215034   -0.080926759    0.004175480
      2        6          -0.032283231   -0.020590239   -0.002372376
      3        6          -0.015132004    0.035328138   -0.002468829
      4        6           0.088976235    0.037183981    0.004442700
      5        1           0.010064855   -0.000301005   -0.000359413
      6        1          -0.001611214    0.003246259    0.000125702
      7        1          -0.003157805   -0.001770758    0.000140527
      8        1           0.008491455   -0.005426315   -0.000298920
      9        6          -0.067724123    0.020700801   -0.003005624
     10        1          -0.020395666    0.006260649   -0.016023081
     11        1          -0.018095873    0.005650357    0.014448851
     12        6           0.041831237    0.071969719    0.044898496
     13        1          -0.016355207    0.011071059   -0.026823645
     14        1          -0.003286242   -0.002060368   -0.018637031
     15        6          -0.009477819   -0.079751817    0.050745261
     16        1           0.002970007    0.000321938   -0.021500366
     17        1          -0.017029637   -0.000905637   -0.027487729
 -------------------------------------------------------------------
 Cartesian Forces:  Max     0.088976235 RMS     0.031015773

 GradGradGradGradGradGradGradGradGradGradGradGradGradGradGradGradGradGrad
 Berny optimization.
 FormGI is forming the generalized inverse of G from B-inverse, IUseBI=4.
 Internal  Forces:  Max     0.079210900 RMS     0.017046282
 Search for a local minimum.
 Step number   1 out of a maximum of  102
 All quantities printed in internal units (Hartrees-Bohrs-Radians)
 Mixed Optimization -- RFO/linear search
 Second derivative matrix not updated -- first step.
 ITU=  0
     Eigenvalues ---    0.00834   0.01246   0.01645   0.01792   0.01910
     Eigenvalues ---    0.01933   0.02130   0.02138   0.02172   0.02181
     Eigenvalues ---    0.03015   0.03886   0.04784   0.05335   0.05724
     Eigenvalues ---    0.07169   0.08371   0.08869   0.09960   0.12659
     Eigenvalues ---    0.15198   0.16000   0.16000   0.16000   0.16000
     Eigenvalues ---    0.18088   0.22000   0.29788   0.30214   0.30541
     Eigenvalues ---    0.33511   0.34529   0.34897   0.34902   0.35418
     Eigenvalues ---    0.35419   0.35447   0.36664   0.37230   0.40318
     Eigenvalues ---    0.43956   0.45652   0.465751000.000001000.00000
     Eigenvalues --- 1000.000001000.000001000.000001000.000001000.00000
     Eigenvalues --- 1000.000001000.000001000.000001000.000001000.00000
     Eigenvalues --- 1000.000001000.000001000.000001000.000001000.00000
     Eigenvalues --- 1000.000001000.000001000.000001000.000001000.00000
     Eigenvalues --- 1000.000001000.000001000.000001000.000001000.00000
     Eigenvalues --- 1000.000001000.000001000.000001000.000001000.00000
     Eigenvalues --- 1000.000001000.000001000.000001000.000001000.00000
     Eigenvalues --- 1000.000001000.000001000.000001000.000001000.00000
     Eigenvalues --- 1000.000001000.000001000.000001000.000001000.00000
     Eigenvalues --- 1000.000001000.000001000.000001000.00000
 RFO step:  Lambda=-7.06831322D-02 EMin= 8.34069396D-03
 Linear search not attempted -- first point.
 Maximum step size (   0.300) exceeded in Quadratic search.
    -- Step size scaled by   0.736
 Iteration  1 RMS(Cart)=  0.04431728 RMS(Int)=  0.00182233
 Iteration  2 RMS(Cart)=  0.00157553 RMS(Int)=  0.00107112
 Iteration  3 RMS(Cart)=  0.00000383 RMS(Int)=  0.00107112
 Iteration  4 RMS(Cart)=  0.00000002 RMS(Int)=  0.00107112
 Iteration  1 RMS(Cart)=  0.00005717 RMS(Int)=  0.00001363
 Iteration  2 RMS(Cart)=  0.00000867 RMS(Int)=  0.00001454
 Iteration  3 RMS(Cart)=  0.00000161 RMS(Int)=  0.00001489
 Iteration  4 RMS(Cart)=  0.00000032 RMS(Int)=  0.00001497
 Variable       Old X    -DE/DX   Delta X   Delta X   Delta X     New X
                                 (Linear)    (Quad)   (Total)
    R1        2.64892  -0.02559   0.00000  -0.03926  -0.03931   2.60961
    R2        2.05842  -0.00625   0.00000  -0.01097  -0.01097   2.04745
    R3        2.63012   0.07921   0.00000   0.11697   0.11705   2.74717
    R4        5.85815   0.00626   0.00000   0.00000   0.00000   5.85815
    R5        2.71151   0.02814   0.00000   0.03132   0.03116   2.74267
    R6        2.05001  -0.00357   0.00000  -0.00618  -0.00618   2.04383
    R7        2.64911  -0.02572   0.00000  -0.03946  -0.03952   2.60959
    R8        2.05000  -0.00356   0.00000  -0.00618  -0.00618   2.04382
    R9        2.05835  -0.00625   0.00000  -0.01096  -0.01096   2.04739
   R10        2.63013   0.07910   0.00000   0.11668   0.11681   2.74694
   R11        5.85815   0.00679   0.00000   0.00000  -0.00000   5.85815
   R12        2.02201   0.02540   0.00000   0.04221   0.04221   2.06422
   R13        2.02201   0.01442   0.00000   0.02999   0.02971   2.05172
   R14        5.34945  -0.00836   0.00000  -0.02634  -0.02670   5.32275
   R15        5.26602  -0.00241   0.00000   0.00581   0.00617   5.27219
   R16        5.49737  -0.00810   0.00000  -0.07531  -0.07593   5.42144
   R17        2.14239  -0.02731   0.00000  -0.05392  -0.05392   2.08847
   R18        2.06446  -0.00297   0.00000  -0.00526  -0.00526   2.05920
   R19        2.75339  -0.07099   0.00000  -0.12937  -0.12931   2.62408
   R20        2.08680  -0.00305   0.00000  -0.01069  -0.00980   2.07700
   R21        2.13597  -0.02547   0.00000  -0.04986  -0.04986   2.08611
    A1        2.27063  -0.00505   0.00000  -0.02556  -0.02559   2.24504
    A2        1.89225  -0.00615   0.00000  -0.00072  -0.00071   1.89153
    A3        2.12031   0.01120   0.00000   0.02629   0.02625   2.14656
    A4        1.87077   0.01654   0.00000   0.02262   0.02239   1.89316
    A5        2.20681  -0.00762   0.00000  -0.00924  -0.00913   2.19768
    A6        2.20561  -0.00892   0.00000  -0.01338  -0.01327   2.19234
    A7        1.87074   0.01656   0.00000   0.02265   0.02241   1.89316
    A8        2.20561  -0.00893   0.00000  -0.01340  -0.01329   2.19233
    A9        2.20683  -0.00763   0.00000  -0.00925  -0.00914   2.19769
   A10        2.27088  -0.00510   0.00000  -0.02568  -0.02571   2.24518
   A11        1.89218  -0.00608   0.00000  -0.00057  -0.00057   1.89161
   A12        2.12012   0.01118   0.00000   0.02625   0.02621   2.14634
   A13        1.89884  -0.02088   0.00000  -0.04398  -0.04372   1.85512
   A14        1.91355   0.00759   0.00000   0.02121   0.02153   1.93508
   A15        1.91360   0.00718   0.00000   0.01653   0.01611   1.92971
   A16        1.91360   0.00801   0.00000   0.02648   0.02648   1.94008
   A17        1.91355   0.00627   0.00000   0.00384   0.00411   1.91766
   A18        1.91063  -0.00816   0.00000  -0.02400  -0.02402   1.88662
   A19        1.87952  -0.00630   0.00000  -0.01212  -0.01260   1.86692
   A20        1.89399  -0.00634   0.00000  -0.01137  -0.01144   1.88254
   A21        2.21539  -0.00928   0.00000  -0.02374  -0.02394   2.19145
   A22        0.77662  -0.00740   0.00000  -0.00210  -0.00323   0.77340
   A23        2.58950  -0.01563   0.00000  -0.06327  -0.06376   2.52574
   A24        1.50418  -0.00550   0.00000  -0.04270  -0.04488   1.45930
   A25        1.96528   0.00853   0.00000   0.03247   0.02748   1.99275
   A26        2.01555  -0.00215   0.00000   0.01289   0.01387   2.02942
   A27        2.04022   0.00658   0.00000   0.03653   0.03475   2.07497
   A28        2.59245  -0.01690   0.00000  -0.06647  -0.06583   2.52662
   A29        2.01606   0.01758   0.00000   0.05785   0.05487   2.07093
   A30        2.01139   0.00032   0.00000   0.02543   0.02441   2.03580
   A31        1.95415   0.00199   0.00000   0.02577   0.02001   1.97417
    D1       -3.14148  -0.00008   0.00000   0.00135   0.00181  -3.13967
    D2        0.00009  -0.00053   0.00000  -0.00372  -0.00355  -0.00346
    D3        0.00001   0.00123   0.00000   0.01185   0.01220   0.01221
    D4        3.14157   0.00077   0.00000   0.00678   0.00685  -3.13477
    D5        0.00007  -0.00198   0.00000  -0.01875  -0.01865  -0.01858
    D6        2.09267  -0.00036   0.00000  -0.00051  -0.00074   2.09193
    D7       -2.09250  -0.00123   0.00000  -0.00660  -0.00657  -2.09907
    D8        3.14156  -0.00081   0.00000  -0.00933  -0.00897   3.13259
    D9       -1.04903   0.00081   0.00000   0.00891   0.00894  -1.04008
   D10        1.04900  -0.00006   0.00000   0.00282   0.00310   1.05210
   D11       -0.00008  -0.00005   0.00000  -0.00069  -0.00070  -0.00078
   D12       -3.14156  -0.00042   0.00000  -0.00446  -0.00475   3.13687
   D13        3.14154   0.00041   0.00000   0.00437   0.00463  -3.13701
   D14        0.00006   0.00004   0.00000   0.00061   0.00058   0.00064
   D15       -3.14146   0.00026   0.00000   0.00141   0.00087  -3.14058
   D16        0.00012  -0.00116   0.00000  -0.01073  -0.01110  -0.01098
   D17        0.00003   0.00064   0.00000   0.00517   0.00494   0.00497
   D18       -3.14158  -0.00079   0.00000  -0.00696  -0.00704   3.13457
   D19       -0.00012   0.00195   0.00000   0.01831   0.01821   0.01809
   D20       -2.09268   0.00060   0.00000   0.00334   0.00348  -2.08920
   D21        2.09248   0.00177   0.00000   0.01404   0.01397   2.10645
   D22        3.14146   0.00067   0.00000   0.00743   0.00706  -3.13466
   D23        1.04890  -0.00068   0.00000  -0.00753  -0.00766   1.04123
   D24       -1.04913   0.00049   0.00000   0.00316   0.00283  -1.04631
   D25        0.75854   0.00034   0.00000  -0.00563  -0.00510   0.75344
   D26        1.31087  -0.01486   0.00000  -0.03322  -0.03262   1.27825
   D27        1.55830  -0.01115   0.00000  -0.01048  -0.01156   1.54673
   D28       -1.32501   0.01770   0.00000   0.03580   0.03620  -1.28881
   D29       -0.77268   0.00250   0.00000   0.00821   0.00868  -0.76400
   D30       -0.52526   0.00621   0.00000   0.03095   0.02974  -0.49552
   D31        2.85834   0.00905   0.00000   0.01577   0.01616   2.87450
   D32       -2.87251  -0.00615   0.00000  -0.01182  -0.01136  -2.88387
   D33       -2.62509  -0.00245   0.00000   0.01092   0.00971  -2.61539
   D34       -0.26359  -0.00728   0.00000  -0.04511  -0.04332  -0.30691
   D35       -2.51095   0.00362   0.00000   0.04511   0.04463  -2.46631
   D36       -2.44735  -0.00253   0.00000  -0.02341  -0.02219  -2.46955
   D37        1.58848   0.00838   0.00000   0.06681   0.06576   1.65424
   D38        0.40798   0.00517   0.00000   0.02764   0.02561   0.43359
   D39       -2.35256  -0.02074   0.00000  -0.12354  -0.12560  -2.47817
   D40       -0.02961   0.00190   0.00000   0.00758   0.00833  -0.02129
   D41        0.02080  -0.00134   0.00000  -0.00996  -0.01070   0.01010
   D42        2.34375   0.02130   0.00000   0.12116   0.12323   2.46698
         Item               Value     Threshold  Converged?
 Maximum Force            0.079143     0.000450     NO 
 RMS     Force            0.017201     0.000300     NO 
 Maximum Displacement     0.158515     0.001800     NO 
 RMS     Displacement     0.044318     0.001200     NO 
 Predicted change in Energy=-3.768140D-02
 GradGradGradGradGradGradGradGradGradGradGradGradGradGradGradGradGradGrad

                          Input orientation:                          
 ---------------------------------------------------------------------
 Center     Atomic      Atomic             Coordinates (Angstroms)
 Number     Number       Type             X           Y           Z
 ---------------------------------------------------------------------
      1          6           0        1.932637   -1.355228    0.035947
      2          6           0        3.313045   -1.321735    0.016711
      3          6           0        3.739485    0.065537    0.025260
      4          6           0        2.616162    0.868400    0.048633
      5          1           0        1.276909   -2.217730    0.037802
      6          1           0        3.968435   -2.181981    0.003070
      7          1           0        4.764949    0.409213    0.018476
      8          1           0        2.557928    1.950209    0.059702
      9          6           0        1.441012    0.012852    0.040477
     10          1           0        0.818946    0.205764   -0.836461
     11          1           0        0.842099    0.199940    0.926532
     12          6           0        2.202610   -0.966444    3.099599
     13          1           0        2.984071   -1.691848    3.390307
     14          1           0        1.198733   -1.237366    3.425538
     15          6           0        2.572384    0.371991    3.108316
     16          1           0        1.842901    1.118096    3.453581
     17          1           0        3.605797    0.598009    3.423932
 ---------------------------------------------------------------------
                    Distance matrix (angstroms):
                    1          2          3          4          5
     1  C    0.000000
     2  C    1.380949   0.000000
     3  C    2.298562   1.451361   0.000000
     4  C    2.326346   2.298556   1.380938   0.000000
     5  H    1.083463   2.224658   3.358235   3.364210   0.000000
     6  H    2.197516   1.081547   2.259258   3.336996   2.691988
     7  H    3.336997   2.259250   1.081544   2.197510   4.366649
     8  H    3.364145   3.358225   2.224691   1.083432   4.360413
     9  C    1.453740   2.299173   2.299127   1.453618   2.236612
    10  H    2.106680   3.046586   3.048241   2.110086   2.616751
    11  H    2.097847   3.041192   3.037301   2.089221   2.612284
    12  C    3.100000   3.295982   3.588666   3.584141   3.434711
    13  H    3.531368   3.409745   3.870735   4.225756   3.798716
    14  H    3.470134   4.012174   4.440142   4.224552   3.527602
    15  C    3.582180   3.602126   3.310781   3.100000   4.220541
    16  H    4.219669   4.463875   4.056882   3.500564   4.807872
    17  H    4.253592   3.921770   3.442727   3.527766   4.981765
                    6          7          8          9         10
     6  H    0.000000
     7  H    2.710895   0.000000
     8  H    4.366661   2.692084   0.000000
     9  C    3.347620   3.347558   2.236341   0.000000
    10  H    4.040473   4.042679   2.621117   1.092338   0.000000
    11  H    4.037364   4.032011   2.599789   1.085722   1.763155
    12  C    3.766185   4.236901   4.227776   3.301103   4.333724
    13  H    3.561260   4.353760   4.953697   4.063053   5.114124
    14  H    4.502980   5.199730   4.830828   3.616681   4.515694
    15  C    4.256087   3.788910   3.432934   3.289471   4.320121
    16  H    5.226320   4.565176   3.566805   3.610036   4.503920
    17  H    4.422912   3.602279   3.774192   4.059122   5.106011
                   11         12         13         14         15
    11  H    0.000000
    12  C    2.816676   0.000000
    13  H    3.773207   1.105171   0.000000
    14  H    2.904835   1.089681   1.842615   0.000000
    15  C    2.789923   1.388602   2.123308   2.139527   0.000000
    16  H    2.868901   2.144761   3.033489   2.442118   1.099102
    17  H    3.746130   2.126414   2.372998   3.026972   1.103920
                   16         17
    16  H    0.000000
    17  H    1.838251   0.000000
 Stoichiometry    C7H10
 Framework group  C1[X(C7H10)]
 Deg. of freedom    45
 Full point group                 C1      NOp   1
 Largest Abelian subgroup         C1      NOp   1
 Largest concise Abelian subgroup C1      NOp   1
                         Standard orientation:                         
 ---------------------------------------------------------------------
 Center     Atomic      Atomic             Coordinates (Angstroms)
 Number     Number       Type             X           Y           Z
 ---------------------------------------------------------------------
      1          6           0       -0.934248    1.151042   -0.376370
      2          6           0       -1.075027    0.754960    0.939047
      3          6           0       -1.073522   -0.695669    0.985118
      4          6           0       -0.932847   -1.174135   -0.302620
      5          1           0       -0.893418    2.155863   -0.779555
      6          1           0       -1.165803    1.412086    1.793265
      7          1           0       -1.163552   -1.297444    1.879265
      8          1           0       -0.892650   -2.202369   -0.641655
      9          6           0       -0.855788   -0.039107   -1.207483
     10          1           0       -1.669631   -0.059533   -1.935799
     11          1           0        0.083803   -0.063470   -1.750959
     12          6           0        2.101283    0.698851    0.060754
     13          1           0        2.305400    1.192082    1.028464
     14          1           0        2.508834    1.224131   -0.802606
     15          6           0        2.106895   -0.689732    0.065236
     16          1           0        2.531943   -1.217876   -0.799879
     17          1           0        2.334600   -1.180737    1.027371
 ---------------------------------------------------------------------
 Rotational constants (GHZ):           3.7016969           1.9816710           1.8710025
 Standard basis: 3-21G (6D, 7F)
 There are    83 symmetry adapted cartesian basis functions of A   symmetry.
 There are    83 symmetry adapted basis functions of A   symmetry.
    83 basis functions,   135 primitive gaussians,    83 cartesian basis functions
    26 alpha electrons       26 beta electrons
       nuclear repulsion energy       276.5713838527 Hartrees.
 NAtoms=   17 NActive=   17 NUniq=   17 SFac= 1.00D+00 NAtFMM=   60 NAOKFM=F Big=F
 Integral buffers will be    131072 words long.
 Raffenetti 2 integral format.
 Two-electron integral symmetry is turned on.
 One-electron integrals computed using PRISM.
 NBasis=    83 RedAO= T EigKep=  4.36D-03  NBF=    83
 NBsUse=    83 1.00D-06 EigRej= -1.00D+00 NBFU=    83
 Initial guess from the checkpoint file:  "C3.chk"
 B after Tr=    -0.000000    0.000000   -0.000000
         Rot=    0.999949   -0.005789    0.007013   -0.004354 Ang=  -1.16 deg.
 ExpMin= 1.83D-01 ExpMax= 1.72D+02 ExpMxC= 1.72D+02 IAcc=3 IRadAn=         5 AccDes= 0.00D+00
 Harris functional with IExCor=  402 and IRadAn=       5 diagonalized for initial guess.
 HarFok:  IExCor=  402 AccDes= 0.00D+00 IRadAn=         5 IDoV= 1 UseB2=F ITyADJ=14
 ICtDFT=  3500011 ScaDFX=  1.000000  1.000000  1.000000  1.000000
 FoFCou: FMM=F IPFlag=           0 FMFlag=      100000 FMFlg1=           0
         NFxFlg=           0 DoJE=T BraDBF=F KetDBF=T FulRan=T
         wScrn=  0.000000 ICntrl=       500 IOpCl=  0 I1Cent=   200000004 NGrid=           0
         NMat0=    1 NMatS0=      1 NMatT0=    0 NMatD0=    1 NMtDS0=    0 NMtDT0=    0
 Petite list used in FoFCou.
 Keep R1 ints in memory in canonical form, NReq=7891700.
 Requested convergence on RMS density matrix=1.00D-08 within 128 cycles.
 Requested convergence on MAX density matrix=1.00D-06.
 Requested convergence on             energy=1.00D-06.
 No special actions if energy rises.
 Integral accuracy reduced to 1.0D-05 until final iterations.
 Initial convergence to 1.0D-05 achieved.  Increase integral accuracy.
 SCF Done:  E(RB3LYP) =  -271.163689044     A.U. after   13 cycles
            NFock= 13  Conv=0.31D-08     -V/T= 2.0092
 Calling FoFJK, ICntrl=      2127 FMM=F ISym2X=0 I1Cent= 0 IOpClX= 0 NMat=1 NMatS=1 NMatT=0.
 ***** Axes restored to original set *****
 -------------------------------------------------------------------
 Center     Atomic                   Forces (Hartrees/Bohr)
 Number     Number              X              Y              Z
 -------------------------------------------------------------------
      1        6           0.031621340   -0.030092753    0.001016579
      2        6          -0.021650318   -0.012090856   -0.001453347
      3        6          -0.011082182    0.022366448   -0.001533579
      4        6           0.043603442    0.007053476    0.000204619
      5        1           0.004403335   -0.000051762   -0.000408514
      6        1           0.000399304    0.001179302    0.000161680
      7        1          -0.000326394   -0.001217456    0.000236767
      8        1           0.003673237   -0.002420058   -0.000284006
      9        6          -0.036029839    0.011236605   -0.002851322
     10        1          -0.005887756    0.002109353   -0.004141082
     11        1          -0.007902473    0.001711631    0.005707514
     12        6           0.022514305    0.042226777    0.037524472
     13        1          -0.008258293    0.001055473   -0.019421855
     14        1          -0.003033279   -0.002474724   -0.016558976
     15        6          -0.007912433   -0.043164704    0.040564817
     16        1           0.001718002   -0.000120792   -0.018503343
     17        1          -0.005849998    0.002694039   -0.020260422
 -------------------------------------------------------------------
 Cartesian Forces:  Max     0.043603442 RMS     0.017451184

 GradGradGradGradGradGradGradGradGradGradGradGradGradGradGradGradGradGrad
 Berny optimization.
 Using GEDIIS/GDIIS optimizer.
 FormGI is forming the generalized inverse of G from B-inverse, IUseBI=4.
 Internal  Forces:  Max     0.034819212 RMS     0.008470053
 Search for a local minimum.
 Step number   2 out of a maximum of  102
 All quantities printed in internal units (Hartrees-Bohrs-Radians)
 Mixed Optimization -- RFO/linear search
 Update second derivatives using D2CorX and points    1    2
 DE= -4.00D-02 DEPred=-3.77D-02 R= 1.06D+00
 TightC=F SS=  1.41D+00  RLast= 3.67D-01 DXNew= 5.0454D-01 1.1018D+00
 Trust test= 1.06D+00 RLast= 3.67D-01 DXMaxT set to 5.05D-01
 ITU=  1  0
 Use linear search instead of GDIIS.
     Eigenvalues ---    0.00884   0.01237   0.01593   0.01793   0.01911
     Eigenvalues ---    0.01928   0.02135   0.02141   0.02165   0.02184
     Eigenvalues ---    0.03181   0.03691   0.04639   0.05263   0.05359
     Eigenvalues ---    0.07230   0.08330   0.08983   0.09990   0.12668
     Eigenvalues ---    0.15251   0.15977   0.15998   0.16000   0.16104
     Eigenvalues ---    0.17945   0.21998   0.29243   0.30279   0.30646
     Eigenvalues ---    0.32944   0.34527   0.34896   0.34901   0.35326
     Eigenvalues ---    0.35419   0.35444   0.36641   0.37841   0.40492
     Eigenvalues ---    0.41542   0.46519   0.480581000.000001000.00000
     Eigenvalues --- 1000.000001000.000001000.000001000.000001000.00000
     Eigenvalues --- 1000.000001000.000001000.000001000.000001000.00000
     Eigenvalues --- 1000.000001000.000001000.000001000.000001000.00000
     Eigenvalues --- 1000.000001000.000001000.000001000.000001000.00000
     Eigenvalues --- 1000.000001000.000001000.000001000.000001000.00000
     Eigenvalues --- 1000.000001000.000001000.000001000.000001000.00000
     Eigenvalues --- 1000.000001000.000001000.000001000.000001000.00000
     Eigenvalues --- 1000.000001000.000001000.000001000.000001000.00000
     Eigenvalues --- 1000.000001000.000001000.000001000.000001000.00000
     Eigenvalues --- 1000.000001000.000001000.000001000.00000
 RFO step:  Lambda=-2.16374682D-02 EMin= 8.84305124D-03
 Quartic linear search produced a step of  1.20445.
 Iteration  1 RMS(Cart)=  0.06297429 RMS(Int)=  0.03081260
 Iteration  2 RMS(Cart)=  0.02451577 RMS(Int)=  0.01246545
 Iteration  3 RMS(Cart)=  0.00138223 RMS(Int)=  0.01239051
 Iteration  4 RMS(Cart)=  0.00003720 RMS(Int)=  0.01239046
 Iteration  5 RMS(Cart)=  0.00000133 RMS(Int)=  0.01239046
 Iteration  6 RMS(Cart)=  0.00000005 RMS(Int)=  0.01239046
 Iteration  1 RMS(Cart)=  0.00016611 RMS(Int)=  0.00004680
 Iteration  2 RMS(Cart)=  0.00003099 RMS(Int)=  0.00005034
 Iteration  3 RMS(Cart)=  0.00000630 RMS(Int)=  0.00005184
 Iteration  4 RMS(Cart)=  0.00000130 RMS(Int)=  0.00005218
 Iteration  5 RMS(Cart)=  0.00000027 RMS(Int)=  0.00005225
 Variable       Old X    -DE/DX   Delta X   Delta X   Delta X     New X
                                 (Linear)    (Quad)   (Total)
    R1        2.60961  -0.01720  -0.04735  -0.01902  -0.06657   2.54304
    R2        2.04745  -0.00262  -0.01321   0.00285  -0.01036   2.03709
    R3        2.74717   0.03263   0.14098  -0.03089   0.11050   2.85767
    R4        5.85815   0.00402   0.00000   0.00000  -0.00000   5.85815
    R5        2.74267   0.01334   0.03753  -0.00248   0.03436   2.77704
    R6        2.04383  -0.00070  -0.00745   0.00606  -0.00139   2.04244
    R7        2.60959  -0.01739  -0.04759  -0.01948  -0.06731   2.54228
    R8        2.04382  -0.00070  -0.00744   0.00605  -0.00139   2.04243
    R9        2.04739  -0.00262  -0.01320   0.00288  -0.01032   2.03707
   R10        2.74694   0.03295   0.14069  -0.02950   0.11177   2.85871
   R11        5.85815   0.00504  -0.00000   0.00000   0.00000   5.85815
   R12        2.06422   0.00705   0.05084  -0.03009   0.02075   2.08497
   R13        2.05172   0.00544   0.03578  -0.01406   0.02121   2.07293
   R14        5.32275  -0.00362  -0.03216   0.03866   0.00411   5.32685
   R15        5.27219   0.00012   0.00744   0.05946   0.06964   5.34183
   R16        5.42144  -0.00633  -0.09146  -0.20876  -0.30488   5.11655
   R17        2.08847  -0.01164  -0.06495   0.01308  -0.05187   2.03660
   R18        2.05920  -0.00154  -0.00633  -0.00031  -0.00665   2.05255
   R19        2.62408  -0.03482  -0.15575   0.00563  -0.15044   2.47364
   R20        2.07700  -0.00305  -0.01181  -0.00920  -0.01123   2.06578
   R21        2.08611  -0.01072  -0.06005   0.01298  -0.04707   2.03903
    A1        2.24504  -0.00331  -0.03082  -0.00594  -0.03690   2.20814
    A2        1.89153  -0.00063  -0.00086   0.02177   0.02101   1.91254
    A3        2.14656   0.00394   0.03162  -0.01593   0.01545   2.16202
    A4        1.89316   0.00638   0.02696  -0.01238   0.01363   1.90678
    A5        2.19768  -0.00213  -0.01100   0.01459   0.00405   2.20173
    A6        2.19234  -0.00424  -0.01598  -0.00223  -0.01777   2.17457
    A7        1.89316   0.00625   0.02700  -0.01345   0.01257   1.90573
    A8        2.19233  -0.00420  -0.01600  -0.00189  -0.01744   2.17489
    A9        2.19769  -0.00205  -0.01100   0.01532   0.00478   2.20247
   A10        2.24518  -0.00335  -0.03096  -0.00616  -0.03724   2.20793
   A11        1.89161  -0.00056  -0.00068   0.02226   0.02163   1.91324
   A12        2.14634   0.00391   0.03157  -0.01620   0.01511   2.16145
   A13        1.85512  -0.01145  -0.05266  -0.01838  -0.07005   1.78507
   A14        1.93508   0.00384   0.02594  -0.00145   0.02513   1.96021
   A15        1.92971   0.00391   0.01940   0.00349   0.02121   1.95092
   A16        1.94008   0.00375   0.03189  -0.00222   0.02927   1.96935
   A17        1.91766   0.00397   0.00495   0.00008   0.00605   1.92372
   A18        1.88662  -0.00383  -0.02893   0.01793  -0.01127   1.87534
   A19        1.86692  -0.00270  -0.01517  -0.00250  -0.01965   1.84727
   A20        1.88254  -0.00298  -0.01378  -0.00707  -0.01882   1.86373
   A21        2.19145  -0.00550  -0.02883  -0.03167  -0.06120   2.13025
   A22        0.77340  -0.00354  -0.00388   0.02792   0.01222   0.78562
   A23        2.52574  -0.01370  -0.07679  -0.10520  -0.17706   2.34868
   A24        1.45930  -0.00506  -0.05405  -0.10528  -0.17483   1.28448
   A25        1.99275   0.00482   0.03310   0.01694  -0.01390   1.97886
   A26        2.02942   0.00148   0.01670   0.06955   0.08934   2.11876
   A27        2.07497   0.00460   0.04186   0.07674   0.08653   2.16151
   A28        2.52662  -0.01435  -0.07929  -0.10354  -0.16678   2.35984
   A29        2.07093   0.01035   0.06609   0.06112   0.08355   2.15448
   A30        2.03580   0.00323   0.02940   0.07720   0.08836   2.12416
   A31        1.97417   0.00039   0.02410   0.04414   0.01067   1.98484
    D1       -3.13967  -0.00027   0.00217  -0.00616  -0.00244   3.14108
    D2       -0.00346  -0.00046  -0.00427  -0.00831  -0.01199  -0.01545
    D3        0.01221   0.00056   0.01470   0.00422   0.02002   0.03223
    D4       -3.13477   0.00037   0.00825   0.00207   0.01047  -3.12430
    D5       -0.01858  -0.00072  -0.02246  -0.00724  -0.02922  -0.04780
    D6        2.09193  -0.00108  -0.00089  -0.02215  -0.02370   2.06823
    D7       -2.09907  -0.00082  -0.00792   0.00166  -0.00640  -2.10547
    D8        3.13259   0.00010  -0.01080   0.00237  -0.00710   3.12549
    D9       -1.04008  -0.00026   0.01077  -0.01253  -0.00158  -1.04167
   D10        1.05210   0.00001   0.00374   0.01128   0.01572   1.06782
   D11       -0.00078   0.00002  -0.00084   0.00077  -0.00004  -0.00081
   D12        3.13687  -0.00023  -0.00572  -0.00415  -0.01070   3.12617
   D13       -3.13701   0.00020   0.00558   0.00286   0.00925  -3.12775
   D14        0.00064  -0.00005   0.00070  -0.00206  -0.00141  -0.00077
   D15       -3.14058   0.00020   0.00105   0.00387   0.00312  -3.13746
   D16       -0.01098  -0.00059  -0.01337  -0.00542  -0.01998  -0.03096
   D17        0.00497   0.00046   0.00594   0.00886   0.01406   0.01903
   D18        3.13457  -0.00034  -0.00848  -0.00043  -0.00904   3.12553
   D19        0.01809   0.00074   0.02193   0.00772   0.02922   0.04732
   D20       -2.08920   0.00108   0.00420   0.02222   0.02680  -2.06240
   D21        2.10645   0.00088   0.01683   0.00123   0.01782   2.12427
   D22       -3.13466  -0.00006   0.00851  -0.00087   0.00643  -3.12823
   D23        1.04123   0.00028  -0.00923   0.01363   0.00400   1.04523
   D24       -1.04631   0.00009   0.00340  -0.00736  -0.00498  -1.05128
   D25        0.75344  -0.00043  -0.00615  -0.00992  -0.01036   0.74308
   D26        1.27825  -0.00784  -0.03929  -0.01433  -0.04748   1.23077
   D27        1.54673  -0.00526  -0.01393   0.03224   0.00653   1.55326
   D28       -1.28881   0.00884   0.04360   0.01044   0.05917  -1.22965
   D29       -0.76400   0.00143   0.01045   0.00603   0.02205  -0.74195
   D30       -0.49552   0.00401   0.03582   0.05259   0.07606  -0.41946
   D31        2.87450   0.00424   0.01947   0.00192   0.02670   2.90121
   D32       -2.88387  -0.00317  -0.01368  -0.00249  -0.01042  -2.89429
   D33       -2.61539  -0.00059   0.01169   0.04408   0.04359  -2.57180
   D34       -0.30691  -0.00648  -0.05217  -0.11242  -0.13812  -0.44503
   D35       -2.46631   0.00360   0.05376   0.11129   0.15558  -2.31073
   D36       -2.46955  -0.00231  -0.02673  -0.05956  -0.06572  -2.53527
   D37        1.65424   0.00776   0.07920   0.16415   0.22798   1.88221
   D38        0.43359   0.00396   0.03084   0.07389   0.07978   0.51337
   D39       -2.47817  -0.01935  -0.15128  -0.28623  -0.44547  -2.92363
   D40       -0.02129   0.00128   0.01003  -0.00084   0.01377  -0.00752
   D41        0.01010  -0.00078  -0.01288  -0.02820  -0.04171  -0.03161
   D42        2.46698   0.01986   0.14843   0.25720   0.41752   2.88450
         Item               Value     Threshold  Converged?
 Maximum Force            0.034601     0.000450     NO 
 RMS     Force            0.008532     0.000300     NO 
 Maximum Displacement     0.342827     0.001800     NO 
 RMS     Displacement     0.081738     0.001200     NO 
 Predicted change in Energy=-3.038157D-02
 GradGradGradGradGradGradGradGradGradGradGradGradGradGradGradGradGradGrad

                          Input orientation:                          
 ---------------------------------------------------------------------
 Center     Atomic      Atomic             Coordinates (Angstroms)
 Number     Number       Type             X           Y           Z
 ---------------------------------------------------------------------
      1          6           0        1.956444   -1.385131    0.087328
      2          6           0        3.300356   -1.330166    0.044412
      3          6           0        3.728669    0.075435    0.064401
      4          6           0        2.642843    0.867867    0.118339
      5          1           0        1.350512   -2.276693    0.085210
      6          1           0        3.972437   -2.176089    0.014812
      7          1           0        4.758353    0.403686    0.052190
      8          1           0        2.635940    1.945583    0.140863
      9          6           0        1.391811    0.017699    0.093993
     10          1           0        0.755505    0.217299   -0.784976
     11          1           0        0.786289    0.208469    0.988554
     12          6           0        2.217182   -0.917064    3.140675
     13          1           0        2.941063   -1.709851    3.235392
     14          1           0        1.190518   -1.256199    3.244122
     15          6           0        2.575995    0.341386    3.172574
     16          1           0        1.867673    1.167304    3.278127
     17          1           0        3.606509    0.634145    3.301408
 ---------------------------------------------------------------------
                    Distance matrix (angstroms):
                    1          2          3          4          5
     1  C    0.000000
     2  C    1.345720   0.000000
     3  C    2.296641   1.469545   0.000000
     4  C    2.355442   2.295460   1.345316   0.000000
     5  H    1.077980   2.167826   3.344931   3.399923   0.000000
     6  H    2.166818   1.080812   2.265224   3.323282   2.624798
     7  H    3.324424   2.265405   1.080809   2.166847   4.335770
     8  H    3.399740   3.343842   2.167339   1.077973   4.413959
     9  C    1.512212   2.337036   2.337758   1.512765   2.294780
    10  H    2.184250   3.091730   3.095362   2.191178   2.707628
    11  H    2.172794   3.095050   3.086965   2.153804   2.703777
    12  C    3.100000   3.306171   3.568348   3.535772   3.454791
    13  H    3.314397   3.233513   3.723272   4.055809   3.574187
    14  H    3.250940   3.833409   4.280897   4.048631   3.323512
    15  C    3.589352   3.619970   3.325677   3.100000   4.229416
    16  H    4.087053   4.329763   3.870855   3.267233   4.724753
    17  H    4.138901   3.815792   3.287141   3.333948   4.889420
                    6          7          8          9         10
     6  H    0.000000
     7  H    2.697091   0.000000
     8  H    4.334777   2.624871   0.000000
     9  C    3.388008   3.388855   2.294949   0.000000
    10  H    4.088595   4.093700   2.716648   1.103318   0.000000
    11  H    4.097051   4.085606   2.675322   1.096945   1.773818
    12  C    3.799617   4.211968   4.167610   3.292004   4.339817
    13  H    3.413685   4.231118   4.799105   3.905509   4.965272
    14  H    4.360472   5.066862   4.687308   3.403916   4.312082
    15  C    4.273077   3.808328   3.430497   3.314321   4.357956
    16  H    5.124210   4.398388   3.322405   3.418588   4.318359
    17  H    4.339704   3.455037   3.556813   3.946188   5.000051
                   11         12         13         14         15
    11  H    0.000000
    12  C    2.818849   0.000000
    13  H    3.656677   1.077723   0.000000
    14  H    2.719603   1.086164   1.808393   0.000000
    15  C    2.826775   1.308992   2.084417   2.115878   0.000000
    16  H    2.707564   2.117932   3.071158   2.516557   1.093161
    17  H    3.672075   2.088615   2.437518   3.068174   1.079011
                   16         17
    16  H    0.000000
    17  H    1.818887   0.000000
 Stoichiometry    C7H10
 Framework group  C1[X(C7H10)]
 Deg. of freedom    45
 Full point group                 C1      NOp   1
 Largest Abelian subgroup         C1      NOp   1
 Largest concise Abelian subgroup C1      NOp   1
                         Standard orientation:                         
 ---------------------------------------------------------------------
 Center     Atomic      Atomic             Coordinates (Angstroms)
 Number     Number       Type             X           Y           Z
 ---------------------------------------------------------------------
      1          6           0       -0.935913    1.164061   -0.328323
      2          6           0       -1.098202    0.730790    0.935362
      3          6           0       -1.061280   -0.738192    0.952408
      4          6           0       -0.877745   -1.190506   -0.301227
      5          1           0       -0.918538    2.190475   -0.657280
      6          1           0       -1.222156    1.351706    1.811292
      7          1           0       -1.153687   -1.344335    1.842465
      8          1           0       -0.811893   -2.221916   -0.607632
      9          6           0       -0.822394   -0.021658   -1.259971
     10          1           0       -1.631468   -0.044193   -2.009773
     11          1           0        0.130220   -0.022186   -1.803860
     12          6           0        2.097425    0.679702    0.089119
     13          1           0        2.094595    1.236567    1.011821
     14          1           0        2.279913    1.296573   -0.786050
     15          6           0        2.146648   -0.628346    0.082206
     16          1           0        2.348672   -1.218875   -0.815271
     17          1           0        2.193111   -1.198913    0.996842
 ---------------------------------------------------------------------
 Rotational constants (GHZ):           3.6794155           2.0042368           1.8919266
 Standard basis: 3-21G (6D, 7F)
 There are    83 symmetry adapted cartesian basis functions of A   symmetry.
 There are    83 symmetry adapted basis functions of A   symmetry.
    83 basis functions,   135 primitive gaussians,    83 cartesian basis functions
    26 alpha electrons       26 beta electrons
       nuclear repulsion energy       277.4002538735 Hartrees.
 NAtoms=   17 NActive=   17 NUniq=   17 SFac= 1.00D+00 NAtFMM=   60 NAOKFM=F Big=F
 Integral buffers will be    131072 words long.
 Raffenetti 2 integral format.
 Two-electron integral symmetry is turned on.
 One-electron integrals computed using PRISM.
 NBasis=    83 RedAO= T EigKep=  4.37D-03  NBF=    83
 NBsUse=    83 1.00D-06 EigRej= -1.00D+00 NBFU=    83
 Initial guess from the checkpoint file:  "C3.chk"
 B after Tr=    -0.000000    0.000000   -0.000000
         Rot=    0.999914   -0.009591    0.004592   -0.007709 Ang=  -1.51 deg.
 ExpMin= 1.83D-01 ExpMax= 1.72D+02 ExpMxC= 1.72D+02 IAcc=3 IRadAn=         5 AccDes= 0.00D+00
 Harris functional with IExCor=  402 and IRadAn=       5 diagonalized for initial guess.
 HarFok:  IExCor=  402 AccDes= 0.00D+00 IRadAn=         5 IDoV= 1 UseB2=F ITyADJ=14
 ICtDFT=  3500011 ScaDFX=  1.000000  1.000000  1.000000  1.000000
 FoFCou: FMM=F IPFlag=           0 FMFlag=      100000 FMFlg1=           0
         NFxFlg=           0 DoJE=T BraDBF=F KetDBF=T FulRan=T
         wScrn=  0.000000 ICntrl=       500 IOpCl=  0 I1Cent=   200000004 NGrid=           0
         NMat0=    1 NMatS0=      1 NMatT0=    0 NMatD0=    1 NMtDS0=    0 NMtDT0=    0
 Petite list used in FoFCou.
 Keep R1 ints in memory in canonical form, NReq=7891700.
 Requested convergence on RMS density matrix=1.00D-08 within 128 cycles.
 Requested convergence on MAX density matrix=1.00D-06.
 Requested convergence on             energy=1.00D-06.
 No special actions if energy rises.
 Integral accuracy reduced to 1.0D-05 until final iterations.
 Initial convergence to 1.0D-05 achieved.  Increase integral accuracy.
 SCF Done:  E(RB3LYP) =  -271.191748990     A.U. after   13 cycles
            NFock= 13  Conv=0.95D-08     -V/T= 2.0086
 Calling FoFJK, ICntrl=      2127 FMM=F ISym2X=0 I1Cent= 0 IOpClX= 0 NMat=1 NMatS=1 NMatT=0.
 ***** Axes restored to original set *****
 -------------------------------------------------------------------
 Center     Atomic                   Forces (Hartrees/Bohr)
 Number     Number              X              Y              Z
 -------------------------------------------------------------------
      1        6          -0.005541356   -0.004563289   -0.002414740
      2        6           0.005199088   -0.002953186   -0.000817389
      3        6           0.005991226   -0.000450704   -0.001022866
      4        6          -0.001527260    0.007087070   -0.004785929
      5        1          -0.001727902   -0.001168595   -0.000203465
      6        1           0.000528507    0.000058166    0.000100747
      7        1           0.000380588   -0.000392729    0.000219151
      8        1          -0.000834291    0.001937923    0.000037647
      9        6          -0.004796109    0.002605356    0.002286181
     10        1           0.003404066   -0.000468774    0.000855048
     11        1          -0.000499222   -0.001509781   -0.000180524
     12        6          -0.010039621   -0.025236802    0.015792253
     13        1           0.005305395   -0.003972776   -0.005781347
     14        1          -0.002278414    0.003267920   -0.006995380
     15        6           0.000572078    0.029517182    0.015158654
     16        1           0.000174980   -0.004419554   -0.005641562
     17        1           0.005688247    0.000662574   -0.006606478
 -------------------------------------------------------------------
 Cartesian Forces:  Max     0.029517182 RMS     0.007173541

 GradGradGradGradGradGradGradGradGradGradGradGradGradGradGradGradGradGrad
 Berny optimization.
 Using GEDIIS/GDIIS optimizer.
 FormGI is forming the generalized inverse of G from B-inverse, IUseBI=4.
 Internal  Forces:  Max     0.024895309 RMS     0.003536927
 Search for a local minimum.
 Step number   3 out of a maximum of  102
 All quantities printed in internal units (Hartrees-Bohrs-Radians)
 Mixed Optimization -- RFO/linear search
 Update second derivatives using D2CorX and points    2    3
 DE= -2.81D-02 DEPred=-3.04D-02 R= 9.24D-01
 TightC=F SS=  1.41D+00  RLast= 8.94D-01 DXNew= 8.4853D-01 2.6822D+00
 Trust test= 9.24D-01 RLast= 8.94D-01 DXMaxT set to 8.49D-01
 ITU=  1  1  0
 Use linear search instead of GDIIS.
     Eigenvalues ---    0.00922   0.01169   0.01494   0.01796   0.01914
     Eigenvalues ---    0.01928   0.02094   0.02140   0.02144   0.02177
     Eigenvalues ---    0.03029   0.04095   0.04234   0.05009   0.05524
     Eigenvalues ---    0.07327   0.07907   0.08927   0.11266   0.12797
     Eigenvalues ---    0.15522   0.15967   0.15985   0.15997   0.16100
     Eigenvalues ---    0.18325   0.21989   0.29572   0.30340   0.30800
     Eigenvalues ---    0.34526   0.34845   0.34900   0.35205   0.35419
     Eigenvalues ---    0.35459   0.36387   0.36916   0.39249   0.40272
     Eigenvalues ---    0.40533   0.46449   0.473111000.000001000.00000
     Eigenvalues --- 1000.000001000.000001000.000001000.000001000.00000
     Eigenvalues --- 1000.000001000.000001000.000001000.000001000.00000
     Eigenvalues --- 1000.000001000.000001000.000001000.000001000.00000
     Eigenvalues --- 1000.000001000.000001000.000001000.000001000.00000
     Eigenvalues --- 1000.000001000.000001000.000001000.000001000.00000
     Eigenvalues --- 1000.000001000.000001000.000001000.000001000.00000
     Eigenvalues --- 1000.000001000.000001000.000001000.000001000.00000
     Eigenvalues --- 1000.000001000.000001000.000001000.000001000.00000
     Eigenvalues --- 1000.000001000.000001000.000001000.000001000.00000
     Eigenvalues --- 1000.000001000.000001000.000001000.00000
 RFO step:  Lambda=-6.52128487D-03 EMin= 9.22413896D-03
 Quartic linear search produced a step of  0.07329.
 Iteration  1 RMS(Cart)=  0.03193330 RMS(Int)=  0.00259911
 Iteration  2 RMS(Cart)=  0.00173195 RMS(Int)=  0.00195326
 Iteration  3 RMS(Cart)=  0.00000337 RMS(Int)=  0.00195326
 Iteration  4 RMS(Cart)=  0.00000001 RMS(Int)=  0.00195326
 Iteration  1 RMS(Cart)=  0.00004051 RMS(Int)=  0.00001085
 Iteration  2 RMS(Cart)=  0.00000701 RMS(Int)=  0.00001164
 Iteration  3 RMS(Cart)=  0.00000138 RMS(Int)=  0.00001196
 Iteration  4 RMS(Cart)=  0.00000028 RMS(Int)=  0.00001203
 Variable       Old X    -DE/DX   Delta X   Delta X   Delta X     New X
                                 (Linear)    (Quad)   (Total)
    R1        2.54304   0.00693  -0.00488   0.01738   0.01250   2.55554
    R2        2.03709   0.00194  -0.00076   0.00557   0.00481   2.04190
    R3        2.85767   0.00417   0.00810   0.00983   0.01792   2.87559
    R4        5.85815   0.00150  -0.00000   0.00000   0.00000   5.85815
    R5        2.77704   0.00397   0.00252   0.01123   0.01371   2.79075
    R6        2.04244   0.00028  -0.00010   0.00044   0.00034   2.04278
    R7        2.54228   0.00699  -0.00493   0.01758   0.01263   2.55491
    R8        2.04243   0.00024  -0.00010   0.00033   0.00023   2.04266
    R9        2.03707   0.00194  -0.00076   0.00559   0.00483   2.04191
   R10        2.85871   0.00440   0.00819   0.01047   0.01870   2.87742
   R11        5.85815   0.00359   0.00000   0.00000  -0.00000   5.85815
   R12        2.08497  -0.00273   0.00152  -0.00575  -0.00423   2.08074
   R13        2.07293   0.00099   0.00155  -0.00159  -0.00019   2.07273
   R14        5.32685   0.00145   0.00030   0.01722   0.01699   5.34384
   R15        5.34183   0.00168   0.00510  -0.01070  -0.00558   5.33625
   R16        5.11655  -0.00158  -0.02234  -0.15101  -0.17377   4.94278
   R17        2.03660   0.00598  -0.00380   0.01953   0.01573   2.05233
   R18        2.05255   0.00047  -0.00049   0.00143   0.00094   2.05349
   R19        2.47364   0.02490  -0.01103   0.07843   0.06764   2.54128
   R20        2.06578  -0.00477  -0.00082  -0.01172  -0.01085   2.05493
   R21        2.03903   0.00482  -0.00345   0.01543   0.01198   2.05102
    A1        2.20814   0.00113  -0.00270   0.00764   0.00490   2.21304
    A2        1.91254  -0.00074   0.00154  -0.00698  -0.00544   1.90710
    A3        2.16202  -0.00040   0.00113  -0.00096   0.00014   2.16216
    A4        1.90678   0.00012   0.00100   0.00217   0.00312   1.90990
    A5        2.20173   0.00040   0.00030   0.00125   0.00156   2.20329
    A6        2.17457  -0.00051  -0.00130  -0.00341  -0.00469   2.16988
    A7        1.90573   0.00011   0.00092   0.00224   0.00310   1.90883
    A8        2.17489  -0.00055  -0.00128  -0.00369  -0.00495   2.16994
    A9        2.20247   0.00044   0.00035   0.00140   0.00177   2.20424
   A10        2.20793   0.00123  -0.00273   0.00822   0.00548   2.21341
   A11        1.91324  -0.00082   0.00159  -0.00731  -0.00573   1.90752
   A12        2.16145  -0.00041   0.00111  -0.00107   0.00002   2.16147
   A13        1.78507   0.00136  -0.00513   0.00977   0.00469   1.78976
   A14        1.96021  -0.00113   0.00184  -0.00774  -0.00578   1.95443
   A15        1.95092   0.00013   0.00155  -0.00368  -0.00247   1.94845
   A16        1.96935  -0.00140   0.00215  -0.01396  -0.01191   1.95744
   A17        1.92372   0.00049   0.00044   0.00852   0.00911   1.93283
   A18        1.87534   0.00055  -0.00083   0.00686   0.00609   1.88143
   A19        1.84727   0.00050  -0.00144  -0.00056  -0.00202   1.84525
   A20        1.86373   0.00060  -0.00138  -0.00406  -0.00502   1.85871
   A21        2.13025   0.00020  -0.00449  -0.01673  -0.02177   2.10848
   A22        0.78562   0.00304   0.00090   0.02073   0.01982   0.80544
   A23        2.34868  -0.00386  -0.01298  -0.04443  -0.05695   2.29173
   A24        1.28448  -0.00242  -0.01281  -0.05851  -0.07208   1.21239
   A25        1.97886   0.00225  -0.00102   0.02442   0.01402   1.99288
   A26        2.11876   0.00263   0.00655   0.00418   0.00761   2.12637
   A27        2.16151  -0.00325   0.00634   0.00270   0.00118   2.16269
   A28        2.35984  -0.00375  -0.01222  -0.05476  -0.06547   2.29437
   A29        2.15448  -0.00344   0.00612  -0.00423  -0.00540   2.14908
   A30        2.12416   0.00224   0.00648   0.00332   0.00543   2.12958
   A31        1.98484   0.00239   0.00078   0.02705   0.01905   2.00389
    D1        3.14108  -0.00063  -0.00018  -0.00940  -0.00956   3.13152
    D2       -0.01545  -0.00036  -0.00088  -0.00913  -0.01001  -0.02546
    D3        0.03223  -0.00041   0.00147   0.00028   0.00180   0.03403
    D4       -3.12430  -0.00014   0.00077   0.00055   0.00135  -3.12295
    D5       -0.04780   0.00054  -0.00214  -0.00166  -0.00381  -0.05161
    D6        2.06823  -0.00086  -0.00174  -0.01623  -0.01803   2.05020
    D7       -2.10547  -0.00086  -0.00047  -0.01549  -0.01602  -2.12149
    D8        3.12549   0.00072  -0.00052   0.00751   0.00703   3.13252
    D9       -1.04167  -0.00068  -0.00012  -0.00706  -0.00718  -1.04885
   D10        1.06782  -0.00068   0.00115  -0.00632  -0.00518   1.06264
   D11       -0.00081   0.00004  -0.00000   0.00115   0.00118   0.00037
   D12        3.12617   0.00019  -0.00078  -0.00280  -0.00361   3.12256
   D13       -3.12775  -0.00023   0.00068   0.00083   0.00155  -3.12620
   D14       -0.00077  -0.00009  -0.00010  -0.00312  -0.00324  -0.00401
   D15       -3.13746   0.00042   0.00023   0.00279   0.00290  -3.13457
   D16       -0.03096   0.00035  -0.00146  -0.00207  -0.00362  -0.03458
   D17        0.01903   0.00028   0.00103   0.00688   0.00787   0.02691
   D18        3.12553   0.00021  -0.00066   0.00202   0.00136   3.12689
   D19        0.04732  -0.00052   0.00214   0.00238   0.00454   0.05186
   D20       -2.06240   0.00070   0.00196   0.01263   0.01453  -2.04787
   D21        2.12427   0.00059   0.00131   0.00727   0.00845   2.13271
   D22       -3.12823  -0.00055   0.00047  -0.00209  -0.00160  -3.12983
   D23        1.04523   0.00067   0.00029   0.00816   0.00839   1.05363
   D24       -1.05128   0.00056  -0.00036   0.00280   0.00231  -1.04898
[...]
 ! A24   A(11,12,14)            74.7366         -DE/DX =    0.0                 !
 ! A25   A(13,12,14)           116.1213         -DE/DX =    0.0                 !
 ! A26   A(13,12,15)           121.8902         -DE/DX =    0.0                 !
 ! A27   A(14,12,15)           121.9874         -DE/DX =    0.0                 !
 ! A28   A(11,15,17)           121.2366         -DE/DX =    0.0                 !
 ! A29   A(12,15,16)           121.9956         -DE/DX =    0.0                 !
 ! A30   A(12,15,17)           121.8934         -DE/DX =    0.0001              !
 ! A31   A(16,15,17)           116.1098         -DE/DX =   -0.0001              !
 ! D1    D(5,1,2,3)            179.4295         -DE/DX =   -0.0001              !
 ! D2    D(5,1,2,6)             -1.3793         -DE/DX =    0.0                 !
 ! D3    D(9,1,2,3)              2.5929         -DE/DX =   -0.0001              !
 ! D4    D(9,1,2,6)           -178.2159         -DE/DX =    0.0                 !
 ! D5    D(2,1,9,4)             -3.9257         -DE/DX =    0.0001              !
 ! D6    D(2,1,9,10)           113.9109         -DE/DX =    0.0                 !
 ! D7    D(2,1,9,11)          -124.8974         -DE/DX =   -0.0002              !
 ! D8    D(5,1,9,4)            179.1032         -DE/DX =    0.0001              !
 ! D9    D(5,1,9,10)           -63.0601         -DE/DX =    0.0                 !
 ! D10   D(5,1,9,11)            58.1315         -DE/DX =   -0.0002              !
 ! D11   D(1,2,3,4)              0.0125         -DE/DX =    0.0                 !
 ! D12   D(1,2,3,7)            179.2187         -DE/DX =    0.0                 !
 ! D13   D(6,2,3,4)           -179.2008         -DE/DX =   -0.0001              !
 ! D14   D(6,2,3,7)              0.0055         -DE/DX =    0.0                 !
 ! D15   D(2,3,4,8)           -179.4044         -DE/DX =    0.0001              !
 ! D16   D(2,3,4,9)             -2.6125         -DE/DX =    0.0001              !
 ! D17   D(7,3,4,8)              1.4115         -DE/DX =    0.0                 !
 ! D18   D(7,3,4,9)            178.2034         -DE/DX =    0.0                 !
 ! D19   D(3,4,9,1)              3.9336         -DE/DX =   -0.0001              !
 ! D20   D(3,4,9,10)          -113.9016         -DE/DX =    0.0                 !
 ! D21   D(3,4,9,11)           124.8976         -DE/DX =    0.0001              !
 ! D22   D(8,4,9,1)           -179.1387         -DE/DX =   -0.0001              !
 ! D23   D(8,4,9,10)            63.0261         -DE/DX =    0.0                 !
 ! D24   D(8,4,9,11)           -58.1747         -DE/DX =    0.0002              !
 ! D25   D(1,9,11,12)           43.4325         -DE/DX =    0.0                 !
 ! D26   D(1,9,11,15)           71.744          -DE/DX =    0.0                 !
 ! D27   D(1,9,11,16)           89.377          -DE/DX =    0.0002              !
 ! D28   D(4,9,11,12)          -71.7232         -DE/DX =   -0.0001              !
 ! D29   D(4,9,11,15)          -43.4117         -DE/DX =   -0.0001              !
 ! D30   D(4,9,11,16)          -25.7786         -DE/DX =    0.0                 !
 ! D31   D(10,9,11,12)         165.8497         -DE/DX =   -0.0001              !
 ! D32   D(10,9,11,15)        -165.8388         -DE/DX =    0.0                 !
 ! D33   D(10,9,11,16)        -148.2058         -DE/DX =    0.0001              !
 ! D34   D(9,11,12,13)         -25.5949         -DE/DX =    0.0                 !
 ! D35   D(9,11,12,14)        -137.2062         -DE/DX =    0.0                 !
 ! D36   D(16,11,12,13)       -144.1747         -DE/DX =    0.0                 !
 ! D37   D(16,11,12,14)        104.2139         -DE/DX =    0.0                 !
 ! D38   D(9,11,15,17)          25.383          -DE/DX =   -0.0002              !
 ! D39   D(13,12,15,16)       -179.5908         -DE/DX =    0.0                 !
 ! D40   D(13,12,15,17)         -0.0117         -DE/DX =    0.0                 !
 ! D41   D(14,12,15,16)          0.0057         -DE/DX =    0.0                 !
 ! D42   D(14,12,15,17)        179.5848         -DE/DX =    0.0                 !
 --------------------------------------------------------------------------------
 GradGradGradGradGradGradGradGradGradGradGradGradGradGradGradGradGradGrad

                          Input orientation:                          
 ---------------------------------------------------------------------
 Center     Atomic      Atomic             Coordinates (Angstroms)
 Number     Number       Type             X           Y           Z
 ---------------------------------------------------------------------
      1          6           0        1.982648   -1.394573    0.133948
      2          6           0        3.330137   -1.330584    0.045035
      3          6           0        3.753616    0.083201    0.053935
      4          6           0        2.662872    0.876353    0.148522
      5          1           0        1.372102   -2.286040    0.142827
      6          1           0        4.010855   -2.168870   -0.010588
      7          1           0        4.783244    0.409873    0.005562
      8          1           0        2.643042    1.956511    0.169495
      9          6           0        1.412994    0.013478    0.144448
     10          1           0        0.820653    0.196744   -0.765222
     11          1           0        0.775568    0.198727    1.013710
     12          6           0        2.163212   -0.925138    3.192874
     13          1           0        2.869179   -1.734734    3.050685
     14          1           0        1.125714   -1.214563    3.334511
     15          6           0        2.547148    0.349317    3.201200
     16          1           0        1.841766    1.162042    3.350117
     17          1           0        3.583352    0.635937    3.066363
 ---------------------------------------------------------------------
                    Distance matrix (angstroms):
                    1          2          3          4          5
     1  C    0.000000
     2  C    1.351935   0.000000
     3  C    2.307931   1.475873   0.000000
     4  C    2.370659   2.307926   1.351946   0.000000
     5  H    1.080536   2.180908   3.360478   3.415677   0.000000
     6  H    2.175787   1.081293   2.267633   3.334030   2.645804
     7  H    3.334044   2.267657   1.081290   2.175780   4.350020
     8  H    3.415721   3.360444   2.180830   1.080544   4.428909
     9  C    1.518955   2.343463   2.343408   1.518804   2.299882
    10  H    2.165878   3.047418   3.047324   2.165772   2.700530
    11  H    2.183948   3.130965   3.131020   2.183952   2.699695
    12  C    3.100000   3.381566   3.660474   3.572549   3.432301
    13  H    3.067409   3.067532   3.614917   3.909333   3.316747
    14  H    3.318184   3.961514   4.399118   4.109174   3.375739
    15  C    3.573212   3.660125   3.381074   3.100000   4.204697
    16  H    4.110945   4.399090   3.960288   3.317536   4.732500
    17  H    3.909512   3.613826   3.067447   3.069019   4.687711
                    6          7          8          9         10
     6  H    0.000000
     7  H    2.691981   0.000000
     8  H    4.349956   2.645643   0.000000
     9  C    3.396403   3.396321   2.299787   0.000000
    10  H    4.042646   4.042482   2.700292   1.100888   0.000000
    11  H    4.137847   4.137923   2.699993   1.093730   1.779504
    12  C    3.901644   4.336563   4.204159   3.276694   4.327540
    13  H    3.295951   4.187572   4.688036   3.690925   4.742174
    14  H    4.519339   5.205595   4.730256   3.430323   4.346569
    15  C    4.335814   3.900755   3.432710   3.277624   4.328575
    16  H    5.205215   4.517090   3.374845   3.432107   4.348618
    17  H    4.185371   3.295352   3.319630   3.692627   4.744095
                   11         12         13         14         15
    11  H    0.000000
    12  C    2.817336   0.000000
    13  H    3.502962   1.083537   0.000000
    14  H    2.739728   1.086383   1.841414   0.000000
    15  C    2.818915   1.331056   2.114149   2.117537   0.000000
    16  H    2.742909   2.117633   3.088130   2.482181   1.086398
    17  H    3.505451   2.114180   2.475958   3.088080   1.083536
                   16         17
    16  H    0.000000
    17  H    1.841311   0.000000
 Stoichiometry    C7H10
 Framework group  C1[X(C7H10)]
 Deg. of freedom    45
 Full point group                 C1      NOp   1
 Largest Abelian subgroup         C1      NOp   1
 Largest concise Abelian subgroup C1      NOp   1
                         Standard orientation:                         
 ---------------------------------------------------------------------
 Center     Atomic      Atomic             Coordinates (Angstroms)
 Number     Number       Type             X           Y           Z
 ---------------------------------------------------------------------
      1          6           0       -0.873385    1.185781   -0.338210
      2          6           0       -1.154187    0.736520    0.905591
      3          6           0       -1.154002   -0.739351    0.903428
      4          6           0       -0.872813   -1.184875   -0.341642
      5          1           0       -0.809391    2.215358   -0.659821
      6          1           0       -1.339114    1.343249    1.781306
      7          1           0       -1.338853   -1.348729    1.777314
      8          1           0       -0.808895   -2.213546   -0.666180
      9          6           0       -0.727907    0.001750   -1.278492
     10          1           0       -1.534653    0.002639   -2.027568
     11          1           0        0.230855    0.002843   -1.804819
     12          6           0        2.142446    0.665492    0.155818
     13          1           0        1.869339    1.238000    1.034283
     14          1           0        2.422042    1.240904   -0.722223
     15          6           0        2.142595   -0.665564    0.155988
     16          1           0        2.422386   -1.241277   -0.721812
     17          1           0        1.869805   -1.237958    1.034625
 ---------------------------------------------------------------------
 Rotational constants (GHZ):           3.6716353           1.9941876           1.8712123

 **********************************************************************

            Population analysis using the SCF Density.

 **********************************************************************

 Orbital symmetries:
       Occupied  (A) (A) (A) (A) (A) (A) (A) (A) (A) (A) (A) (A)
                 (A) (A) (A) (A) (A) (A) (A) (A) (A) (A) (A) (A)
                 (A) (A)
       Virtual   (A) (A) (A) (A) (A) (A) (A) (A) (A) (A) (A) (A)
                 (A) (A) (A) (A) (A) (A) (A) (A) (A) (A) (A) (A)
                 (A) (A) (A) (A) (A) (A) (A) (A) (A) (A) (A) (A)
                 (A) (A) (A) (A) (A) (A) (A) (A) (A) (A) (A) (A)
                 (A) (A) (A) (A) (A) (A) (A) (A) (A)
 The electronic state is 1-A.
 Alpha  occ. eigenvalues --  -10.12160 -10.11804 -10.11778 -10.11706 -10.11594
 Alpha  occ. eigenvalues --  -10.10667 -10.10570  -0.85200  -0.74766  -0.70216
 Alpha  occ. eigenvalues --   -0.69761  -0.56597  -0.54833  -0.52596  -0.51238
 Alpha  occ. eigenvalues --   -0.45869  -0.43289  -0.41141  -0.40025  -0.37378
 Alpha  occ. eigenvalues --   -0.35605  -0.35423  -0.34168  -0.29646  -0.25173
 Alpha  occ. eigenvalues --   -0.21345
 Alpha virt. eigenvalues --   -0.00706   0.03580   0.09611   0.12915   0.15012
 Alpha virt. eigenvalues --    0.16471   0.17975   0.18189   0.19406   0.19540
 Alpha virt. eigenvalues --    0.19779   0.21545   0.21891   0.25995   0.28581
 Alpha virt. eigenvalues --    0.37731   0.38715   0.40649   0.47553   0.64514
 Alpha virt. eigenvalues --    0.66202   0.70282   0.70337   0.72226   0.73129
 Alpha virt. eigenvalues --    0.74697   0.76465   0.79432   0.81093   0.82911
 Alpha virt. eigenvalues --    0.83697   0.85012   0.85776   0.93865   0.95847
 Alpha virt. eigenvalues --    0.96515   0.99647   1.02484   1.03133   1.04915
 Alpha virt. eigenvalues --    1.06174   1.06289   1.08085   1.09191   1.11252
 Alpha virt. eigenvalues --    1.13493   1.29191   1.36502   1.38265   1.38289
 Alpha virt. eigenvalues --    1.41361   1.50130   1.60655   1.85040   1.89539
 Alpha virt. eigenvalues --    2.07715   2.16093
          Condensed to atoms (all electrons):
               1          2          3          4          5          6
     1  C    5.227455   0.528080  -0.110582  -0.112412   0.390046  -0.037225
     2  C    0.528080   5.169259   0.393227  -0.110578  -0.035531   0.386931
     3  C   -0.110582   0.393227   5.169285   0.528083   0.003935  -0.032364
     4  C   -0.112412  -0.110578   0.528083   5.227415   0.002826   0.003521
     5  H    0.390046  -0.035531   0.003935   0.002826   0.496633  -0.002087
     6  H   -0.037225   0.386931  -0.032364   0.003521  -0.002087   0.502612
     7  H    0.003521  -0.032361   0.386932  -0.037224  -0.000052  -0.000799
     8  H    0.002826   0.003936  -0.035538   0.390046  -0.000032  -0.000052
     9  C    0.335255  -0.123479  -0.123495   0.335256  -0.032497   0.004554
    10  H   -0.035872   0.001958   0.001956  -0.035883  -0.000023  -0.000098
    11  H   -0.034024   0.002578   0.002580  -0.034023  -0.000368  -0.000078
    12  C    0.001616  -0.000985  -0.001352  -0.002106  -0.000239   0.000011
    13  H    0.001240   0.001585  -0.000105  -0.000058   0.000007   0.000096
    14  H    0.000434   0.000024   0.000003  -0.000012   0.000058   0.000000
    15  C   -0.002101  -0.001350  -0.000979   0.001630  -0.000021  -0.000010
    16  H   -0.000012   0.000003   0.000024   0.000436   0.000000  -0.000000
    17  H   -0.000058  -0.000103   0.001585   0.001228  -0.000000  -0.000001
               7          8          9         10         11         12
     1  C    0.003521   0.002826   0.335255  -0.035872  -0.034024   0.001616
     2  C   -0.032361   0.003936  -0.123479   0.001958   0.002578  -0.000985
     3  C    0.386932  -0.035538  -0.123495   0.001956   0.002580  -0.001352
     4  C   -0.037224   0.390046   0.335256  -0.035883  -0.034023  -0.002106
     5  H   -0.000052  -0.000032  -0.032497  -0.000023  -0.000368  -0.000239
     6  H   -0.000799  -0.000052   0.004554  -0.000098  -0.000078   0.000011
     7  H    0.502607  -0.002087   0.004554  -0.000098  -0.000078  -0.000010
     8  H   -0.002087   0.496648  -0.032502  -0.000024  -0.000368  -0.000021
     9  C    0.004554  -0.032502   5.403004   0.344791   0.349064  -0.004828
    10  H   -0.000098  -0.000024   0.344791   0.524645  -0.023455   0.000193
    11  H   -0.000078  -0.000368   0.349064  -0.023455   0.506324   0.003019
    12  C   -0.000010  -0.000021  -0.004828   0.000193   0.003019   5.140771
    13  H   -0.000001  -0.000000   0.000026   0.000001  -0.000047   0.381467
    14  H   -0.000000   0.000000  -0.000046   0.000001   0.000579   0.380368
    15  C    0.000011  -0.000239  -0.004807   0.000192   0.003002   0.561607
    16  H    0.000000   0.000059  -0.000045   0.000001   0.000570  -0.048402
    17  H    0.000096   0.000007   0.000026   0.000001  -0.000046  -0.044547
              13         14         15         16         17
     1  C    0.001240   0.000434  -0.002101  -0.000012  -0.000058
     2  C    0.001585   0.000024  -0.001350   0.000003  -0.000103
     3  C   -0.000105   0.000003  -0.000979   0.000024   0.001585
     4  C   -0.000058  -0.000012   0.001630   0.000436   0.001228
     5  H    0.000007   0.000058  -0.000021   0.000000  -0.000000
     6  H    0.000096   0.000000  -0.000010  -0.000000  -0.000001
     7  H   -0.000001  -0.000000   0.000011   0.000000   0.000096
     8  H   -0.000000   0.000000  -0.000239   0.000059   0.000007
     9  C    0.000026  -0.000046  -0.004807  -0.000045   0.000026
    10  H    0.000001   0.000001   0.000192   0.000001   0.000001
    11  H   -0.000047   0.000579   0.003002   0.000570  -0.000046
    12  C    0.381467   0.380368   0.561607  -0.048402  -0.044547
    13  H    0.507414  -0.031842  -0.044546   0.003307  -0.005223
    14  H   -0.031842   0.527820  -0.048418  -0.005327   0.003307
    15  C   -0.044546  -0.048418   5.140669   0.380367   0.381467
    16  H    0.003307  -0.005327   0.380367   0.527809  -0.031854
    17  H   -0.005223   0.003307   0.381467  -0.031854   0.507454
 Mulliken charges:
               1
     1  C   -0.158189
     2  C   -0.183197
     3  C   -0.183197
     4  C   -0.158144
     5  H    0.177344
     6  H    0.174987
     7  H    0.174988
     8  H    0.177342
     9  C   -0.454832
    10  H    0.221713
    11  H    0.224770
    12  C   -0.366563
    13  H    0.186678
    14  H    0.173050
    15  C   -0.366475
    16  H    0.173065
    17  H    0.186661
 Sum of Mulliken charges =   0.00000
 Mulliken charges with hydrogens summed into heavy atoms:
               1
     1  C    0.019155
     2  C   -0.008210
     3  C   -0.008209
     4  C    0.019198
     9  C   -0.008349
    12  C   -0.006835
    15  C   -0.006750
 Electronic spatial extent (au):  <R**2>=            798.1026
 Charge=             -0.0000 electrons
 Dipole moment (field-independent basis, Debye):
    X=             -0.2045    Y=              0.0003    Z=             -0.4491  Tot=              0.4935
 Quadrupole moment (field-independent basis, Debye-Ang):
   XX=            -48.4441   YY=            -40.2188   ZZ=            -39.6610
   XY=              0.0001   XZ=             -1.4315   YZ=             -0.0017
 Traceless Quadrupole moment (field-independent basis, Debye-Ang):
   XX=             -5.6695   YY=              2.5558   ZZ=              3.1136
   XY=              0.0001   XZ=             -1.4315   YZ=             -0.0017
 Octapole moment (field-independent basis, Debye-Ang**2):
  XXX=             -3.3771  YYY=             -0.0004  ZZZ=              1.5109  XYY=              0.6841
  XXY=             -0.0045  XXZ=             -4.0822  XZZ=             -2.5145  YZZ=             -0.0027
  YYZ=             -0.0463  XYZ=              0.0023
 Hexadecapole moment (field-independent basis, Debye-Ang**3):
 XXXX=           -665.6182 YYYY=           -253.2138 ZZZZ=           -215.2838 XXXY=             -0.0138
 XXXZ=            -11.6578 YYYX=              0.0044 YYYZ=              0.0026 ZZZX=             -4.5631
 ZZZY=              0.0049 XXYY=           -142.8975 XXZZ=           -127.9899 YYZZ=            -75.7065
 XXYZ=             -0.0140 YYXZ=             -2.7822 ZZXY=              0.0005
 N-N= 2.765803193446D+02 E-N=-1.180444649405D+03  KE= 2.687384765190D+02
 1\1\GINC-TACHAS\FOpt\RB3LYP\3-21G\C7H10\LEOS\20-Oct-2019\0\\# opt=modr
 edundant b3lyp/3-21g geom=connectivity\\Title Card Required\\0,1\C,1.9
 82647836,-1.3945734575,0.1339482315\C,3.3301370504,-1.3305837755,0.045
 035043\C,3.7536159709,0.0832007068,0.0539348802\C,2.6628721208,0.87635
 28684,0.1485217709\H,1.3721023672,-2.2860398721,0.1428274194\H,4.01085
 45196,-2.1688704271,-0.0105880106\H,4.7832437961,0.4098728583,0.005561
 8852\H,2.6430415856,1.9565111039,0.169495274\C,1.412994483,0.013477625
 ,0.1444480683\H,0.8206527349,0.1967437322,-0.76522172\H,0.7755680777,0
 .1987266342,1.01371008\C,2.1632116347,-0.9251376051,3.1928738898\H,2.8
 691787823,-1.7347336793,3.050685211\H,1.1257141786,-1.2145625759,3.334
 5113454\C,2.5471477063,0.3493171225,3.2011995712\H,1.8417655507,1.1620
 417365,3.3501167226\H,3.5833521453,0.6359365648,3.0663627882\\Version=
 ES64L-G16RevB.01\State=1-A\HF=-271.1957695\RMSD=8.074e-09\RMSF=9.646e-
 04\Dipole=-0.1556284,0.0474068,-0.1059638\Quadrupole=2.4359441,1.94761
 9,-4.3835631,-0.1598261,-0.0379627,0.0517473\PG=C01 [X(C7H10)]\\@


 THERE IS MORE TO LIFE THAN INCREASING ITS SPEED.

                                       -- GANDHI
 Job cpu time:       0 days  0 hours 14 minutes 33.4 seconds.
 Elapsed time:       0 days  0 hours  7 minutes 19.3 seconds.
 File lengths (MBytes):  RWF=     10 Int=      0 D2E=      0 Chk=      2 Scr=      1
 Normal termination of Gaussian 16 at Sun Oct 20 18:37:10 2019.
