 Entering Gaussian System, Link 0=g16
 Input=C3.2.com
 Output=C3.2.log
 Initial command:
 /opt/g16/l1.exe "/tmp/Gau-32323.inp" -scrdir="/tmp/"
 Entering Link 1 = /opt/g16/l1.exe PID=     32325.
  
 Copyright (c) 1988-2017, Gaussian, Inc.  All Rights Reserved.
  
 This is part of the Gaussian(R) 16 program.  It is based on
 the Gaussian(R) 09 system (copyright 2009, Gaussian, Inc.),
 the Gaussian(R) 03 system (copyright 2003, Gaussian, Inc.),
 the Gaussian(R) 98 system (copyright 1998, Gaussian, Inc.),
 the Gaussian(R) 94 system (copyright 1995, Gaussian, Inc.),
 the Gaussian 92(TM) system (copyright 1992, Gaussian, Inc.),
 the Gaussian 90(TM) system (copyright 1990, Gaussian, Inc.),
 the Gaussian 88(TM) system (copyright 1988, Gaussian, Inc.),
 the Gaussian 86(TM) system (copyright 1986, Carnegie Mellon
 University), and the Gaussian 82(TM) system (copyright 1983,
 Carnegie Mellon University). Gaussian is a federally registered
 trademark of Gaussian, Inc.
  
 This software contains proprietary and confidential information,
 including trade secrets, belonging to Gaussian, Inc.
  
 This software is provided under written license and may be
 used, copied, transmitted, or stored only in accord with that
 written license.
  
 The following legend is applicable only to US Government
 contracts under FAR:
  
                    RESTRICTED RIGHTS LEGEND
  
 Use, reproduction and disclosure by the US Government is
 subject to restrictions as set forth in subparagraphs (a)
 and (c) of the Commercial Computer Software - Restricted
 Rights clause in FAR 52.227-19.
  
 Gaussian, Inc.
 340 Quinnipiac St., Bldg. 40, Wallingford CT 06492
  
  
 ---------------------------------------------------------------
 Warning -- This program may not be used in any manner that
 competes with the business of Gaussian, Inc. or will provide
 assistance to any competitor of Gaussian, Inc.  The licensee
 of this program is prohibited from giving any competitor of
 Gaussian, Inc. access to this program.  By using this program,
 the user acknowledges that Gaussian, Inc. is engaged in the
 business of creating and licensing software in the field of
 computational chemistry and represents and warrants to the
 licensee that it is not a competitor of Gaussian, Inc. and that
 it will not use this program in any manner prohibited above.
 ---------------------------------------------------------------
  

 Cite this work as:
 Gaussian 16, Revision B.01,
 M. J. Frisch, G. W. Trucks, H. B. Schlegel, G. E. Scuseria, 
 M. A. Robb, J. R. Cheeseman, G. Scalmani, V. Barone, 
 G. A. Petersson, H. Nakatsuji, X. Li, M. Caricato, A. V. Marenich, 
 J. Bloino, B. G. Janesko, R. Gomperts, B. Mennucci, H. P. Hratchian, 
 J. V. Ortiz, A. F. Izmaylov, J. L. Sonnenberg, D. Williams-Young, 
 F. Ding, F. Lipparini, F. Egidi, J. Goings, B. Peng, A. Petrone, 
 T. Henderson, D. Ranasinghe, V. G. Zakrzewski, J. Gao, N. Rega, 
 G. Zheng, W. Liang, M. Hada, M. Ehara, K. Toyota, R. Fukuda, 
 J. Hasegawa, M. Ishida, T. Nakajima, Y. Honda, O. Kitao, H. Nakai, 
 T. Vreven, K. Throssell, J. A. Montgomery, Jr., J. E. Peralta, 
 F. Ogliaro, M. J. Bearpark, J. J. Heyd, E. N. Brothers, K. N. Kudin, 
 V. N. Staroverov, T. A. Keith, R. Kobayashi, J. Normand, 
 K. Raghavachari, A. P. Rendell, J. C. Burant, S. S. Iyengar, 
 J. Tomasi, M. Cossi, J. M. Millam, M. Klene, C. Adamo, R. Cammi, 
 J. W. Ochterski, R. L. Martin, K. Morokuma, O. Farkas, 
 J. B. Foresman, and D. J. Fox, Gaussian, Inc., Wallingford CT, 2016.
 
 ******************************************
 Gaussian 16:  ES64L-G16RevB.01 20-Dec-2017
                20-Oct-2019 
 ******************************************
 %nprocshared=2
 Will use up to    2 processors via shared memory.
 %mem=6GB
 %chk=C3.chk
 ------------------------------------------------
 # opt=modredundant b3lyp/3-21g geom=connectivity
 ------------------------------------------------
 1/18=120,19=15,26=3,38=1,57=2/1,3;
 2/9=110,12=2,17=6,18=5,40=1/2;
 3/5=5,11=2,25=1,30=1,71=1,74=-5/1,2,3;
 4//1;
 5/5=2,38=5/2;
 6/7=2,8=2,9=2,10=2,28=1/1;
 7//1,2,3,16;
 1/18=20,19=15,26=3/3(2);
 2/9=110/2;
 99//99;
 2/9=110/2;
 3/5=5,11=2,25=1,30=1,71=1,74=-5/1,2,3;
 4/5=5,16=3,69=1/1;
 5/5=2,38=5/2;
 7//1,2,3,16;
 1/18=20,19=15,26=3/3(-5);
 2/9=110/2;
 6/7=2,8=2,9=2,10=2,19=2,28=1/1;
 99/9=1/99;
 -------------------
 Title Card Required
 -------------------
 Symbolic Z-matrix:
 Charge =  0 Multiplicity = 1
 C                     1.91428  -1.31213   0.01839 
 C                     3.31603  -1.31213   0.01839 
 C                     3.74002   0.05867   0.01839 
 C                     2.58297   0.85012   0.01829 
 H                     1.21269  -2.14536   0.01849 
 H                     3.9604   -2.18483   0.01842 
 H                     4.76459   0.41516   0.01837 
 H                     2.47405   1.93389   0.01814 
 C                     1.47455   0.00838   0.01838 
 H                     0.8843    0.19084  -0.85523 
 H                     0.88443   0.19095   0.89207 
 C                     2.21687  -0.99712   3.18844 
 H                     2.99869  -1.72739   3.46377 
 H                     1.21011  -1.24598   3.46585 
 C                     2.59125   0.3841    3.18416 
 H                     1.83702   1.0986    3.48658 
 H                     3.6256    0.61719   3.4845 
 
 Add virtual bond connecting atoms C12        and H11        Dist= 5.50D+00.
 Add virtual bond connecting atoms H14        and H11        Dist= 5.60D+00.
 Add virtual bond connecting atoms C15        and H11        Dist= 5.41D+00.
 Add virtual bond connecting atoms H16        and H11        Dist= 5.50D+00.
 The following ModRedundant input section has been read:
 B       4      15 F                                                           
 B       1      12 F                                                           
 

 GradGradGradGradGradGradGradGradGradGradGradGradGradGradGradGradGradGrad
 Berny optimization.
 Initialization pass.
                           ----------------------------
                           !    Initial Parameters    !
                           ! (Angstroms and Degrees)  !
 --------------------------                            --------------------------
 ! Name  Definition              Value          Derivative Info.                !
 --------------------------------------------------------------------------------
 ! R1    R(1,2)                  1.4018         estimate D2E/DX2                !
 ! R2    R(1,5)                  1.0893         estimate D2E/DX2                !
 ! R3    R(1,9)                  1.3918         estimate D2E/DX2                !
 ! R4    R(1,12)                 3.2            Frozen                          !
 ! R5    R(2,3)                  1.4349         estimate D2E/DX2                !
 ! R6    R(2,6)                  1.0848         estimate D2E/DX2                !
 ! R7    R(3,4)                  1.4018         estimate D2E/DX2                !
 ! R8    R(3,7)                  1.0848         estimate D2E/DX2                !
 ! R9    R(4,8)                  1.0892         estimate D2E/DX2                !
 ! R10   R(4,9)                  1.3918         estimate D2E/DX2                !
 ! R11   R(4,15)                 3.2            Frozen                          !
 ! R12   R(9,10)                 1.07           estimate D2E/DX2                !
 ! R13   R(9,11)                 1.07           estimate D2E/DX2                !
 ! R14   R(11,12)                2.9087         estimate D2E/DX2                !
 ! R15   R(11,14)                2.9657         estimate D2E/DX2                !
 ! R16   R(11,15)                2.8643         estimate D2E/DX2                !
 ! R17   R(11,16)                2.9091         estimate D2E/DX2                !
 ! R18   R(12,13)                1.1047         estimate D2E/DX2                !
 ! R19   R(12,14)                1.0735         estimate D2E/DX2                !
 ! R20   R(12,15)                1.4311         estimate D2E/DX2                !
 ! R21   R(15,16)                1.082          estimate D2E/DX2                !
 ! R22   R(15,17)                1.102          estimate D2E/DX2                !
 ! A1    A(2,1,5)              130.0976         estimate D2E/DX2                !
 ! A2    A(2,1,9)              108.4177         estimate D2E/DX2                !
 ! A3    A(5,1,9)              121.4847         estimate D2E/DX2                !
 ! A4    A(1,2,3)              107.1873         estimate D2E/DX2                !
 ! A5    A(1,2,6)              126.4408         estimate D2E/DX2                !
 ! A6    A(3,2,6)              126.372          estimate D2E/DX2                !
 ! A7    A(2,3,4)              107.1858         estimate D2E/DX2                !
 ! A8    A(2,3,7)              126.3724         estimate D2E/DX2                !
 ! A9    A(4,3,7)              126.4419         estimate D2E/DX2                !
 ! A10   A(3,4,8)              130.1121         estimate D2E/DX2                !
 ! A11   A(3,4,9)              108.4137         estimate D2E/DX2                !
 ! A12   A(8,4,9)              121.4742         estimate D2E/DX2                !
 ! A13   A(1,9,4)              108.7956         estimate D2E/DX2                !
 ! A14   A(1,9,10)             109.6383         estimate D2E/DX2                !
 ! A15   A(1,9,11)             109.6412         estimate D2E/DX2                !
 ! A16   A(4,9,10)             109.6414         estimate D2E/DX2                !
 ! A17   A(4,9,11)             109.6385         estimate D2E/DX2                !
 ! A18   A(10,9,11)            109.4712         estimate D2E/DX2                !
 ! A19   A(9,11,12)            108.8024         estimate D2E/DX2                !
 ! A20   A(9,11,14)            124.4295         estimate D2E/DX2                !
 ! A21   A(9,11,15)            109.6497         estimate D2E/DX2                !
 ! A22   A(9,11,16)            126.9325         estimate D2E/DX2                !
 ! A23   A(12,11,16)            43.3903         estimate D2E/DX2                !
 ! A24   A(14,11,15)            43.3436         estimate D2E/DX2                !
 ! A25   A(14,11,16)            48.7914         estimate D2E/DX2                !
 ! A26   A(11,12,13)           142.2786         estimate D2E/DX2                !
 ! A27   A(13,12,14)           116.4915         estimate D2E/DX2                !
 ! A28   A(13,12,15)           116.9772         estimate D2E/DX2                !
 ! A29   A(14,12,15)           118.0246         estimate D2E/DX2                !
 ! A30   A(11,15,17)           142.3412         estimate D2E/DX2                !
 ! A31   A(12,15,16)           117.0093         estimate D2E/DX2                !
 ! A32   A(12,15,17)           116.6716         estimate D2E/DX2                !
 ! A33   A(16,15,17)           116.0026         estimate D2E/DX2                !
 ! D1    D(5,1,2,3)           -179.9933         estimate D2E/DX2                !
 ! D2    D(5,1,2,6)              0.0051         estimate D2E/DX2                !
 ! D3    D(9,1,2,3)              0.0004         estimate D2E/DX2                !
 ! D4    D(9,1,2,6)            179.9987         estimate D2E/DX2                !
 ! D5    D(2,1,9,4)              0.0039         estimate D2E/DX2                !
 ! D6    D(2,1,9,10)           119.9009         estimate D2E/DX2                !
 ! D7    D(2,1,9,11)          -119.8913         estimate D2E/DX2                !
 ! D8    D(5,1,9,4)            179.9982         estimate D2E/DX2                !
 ! D9    D(5,1,9,10)           -60.1048         estimate D2E/DX2                !
 ! D10   D(5,1,9,11)            60.103          estimate D2E/DX2                !
 ! D11   D(1,2,3,4)             -0.0044         estimate D2E/DX2                !
 ! D12   D(1,2,3,7)           -179.9984         estimate D2E/DX2                !
 ! D13   D(6,2,3,4)            179.9972         estimate D2E/DX2                !
 ! D14   D(6,2,3,7)              0.0033         estimate D2E/DX2                !
 ! D15   D(2,3,4,8)           -179.9922         estimate D2E/DX2                !
 ! D16   D(2,3,4,9)              0.0069         estimate D2E/DX2                !
 ! D17   D(7,3,4,8)              0.0017         estimate D2E/DX2                !
 ! D18   D(7,3,4,9)           -179.9992         estimate D2E/DX2                !
 ! D19   D(3,4,9,1)             -0.0067         estimate D2E/DX2                !
 ! D20   D(3,4,9,10)          -119.9018         estimate D2E/DX2                !
 ! D21   D(3,4,9,11)           119.8901         estimate D2E/DX2                !
 ! D22   D(8,4,9,1)            179.9924         estimate D2E/DX2                !
 ! D23   D(8,4,9,10)            60.0973         estimate D2E/DX2                !
 ! D24   D(8,4,9,11)           -60.1107         estimate D2E/DX2                !
 ! D25   D(1,9,11,12)           44.0666         estimate D2E/DX2                !
 ! D26   D(1,9,11,14)           28.2271         estimate D2E/DX2                !
 ! D27   D(1,9,11,15)           74.4805         estimate D2E/DX2                !
 ! D28   D(1,9,11,16)           89.2837         estimate D2E/DX2                !
 ! D29   D(4,9,11,12)          -75.3122         estimate D2E/DX2                !
 ! D30   D(4,9,11,14)          -91.1516         estimate D2E/DX2                !
 ! D31   D(4,9,11,15)          -44.8983         estimate D2E/DX2                !
 ! D32   D(4,9,11,16)          -30.0951         estimate D2E/DX2                !
 ! D33   D(10,9,11,12)         164.3761         estimate D2E/DX2                !
 ! D34   D(10,9,11,14)         148.5367         estimate D2E/DX2                !
 ! D35   D(10,9,11,15)        -165.2099         estimate D2E/DX2                !
 ! D36   D(10,9,11,16)        -150.4067         estimate D2E/DX2                !
 ! D37   D(9,11,12,13)         -16.7654         estimate D2E/DX2                !
 ! D38   D(16,11,12,13)       -141.0861         estimate D2E/DX2                !
 ! D39   D(9,11,15,17)          24.0943         estimate D2E/DX2                !
 ! D40   D(14,11,15,17)        143.853          estimate D2E/DX2                !
 ! D41   D(13,12,15,16)       -145.4758         estimate D2E/DX2                !
 ! D42   D(13,12,15,17)         -1.6984         estimate D2E/DX2                !
 ! D43   D(14,12,15,16)          1.4482         estimate D2E/DX2                !
 ! D44   D(14,12,15,17)        145.2256         estimate D2E/DX2                !
 --------------------------------------------------------------------------------
 Trust Radius=3.00D-01 FncErr=1.00D-07 GrdErr=1.00D-06 EigMax=2.50D+02 EigMin=1.00D-04
 Number of steps in this run=    102 maximum allowed number of steps=    102.
 GradGradGradGradGradGradGradGradGradGradGradGradGradGradGradGradGradGrad

                          Input orientation:                          
 ---------------------------------------------------------------------
 Center     Atomic      Atomic             Coordinates (Angstroms)
 Number     Number       Type             X           Y           Z
 ---------------------------------------------------------------------
      1          6           0        1.914276   -1.312128    0.018394
      2          6           0        3.316026   -1.312128    0.018394
      3          6           0        3.740024    0.058668    0.018394
      4          6           0        2.582967    0.850121    0.018290
      5          1           0        1.212688   -2.145361    0.018492
      6          1           0        3.960399   -2.184834    0.018419
      7          1           0        4.764587    0.415160    0.018369
      8          1           0        2.474045    1.933893    0.018143
      9          6           0        1.474549    0.008380    0.018385
     10          1           0        0.884296    0.190842   -0.855234
     11          1           0        0.884427    0.190951    0.892069
     12          6           0        2.216868   -0.997122    3.188442
     13          1           0        2.998686   -1.727388    3.463766
     14          1           0        1.210108   -1.245980    3.465854
     15          6           0        2.591246    0.384101    3.184164
     16          1           0        1.837021    1.098595    3.486585
     17          1           0        3.625600    0.617187    3.484497
 ---------------------------------------------------------------------
                    Distance matrix (angstroms):
                    1          2          3          4          5
     1  C    0.000000
     2  C    1.401750   0.000000
     3  C    2.283076   1.434871   0.000000
     4  C    2.263287   2.283133   1.401848   0.000000
     5  H    1.089267   2.262368   3.353382   3.294021   0.000000
     6  H    2.224463   1.084819   2.254300   3.332907   2.747995
     7  H    3.332836   2.254297   1.084811   2.224558   4.378613
     8  H    3.293933   3.353444   2.262559   1.089232   4.269817
     9  C    1.391798   2.266005   2.266033   1.391804   2.169602
    10  H    2.020644   2.989223   2.989294   2.020687   2.515767
    11  H    2.020679   2.989185   2.989187   2.020652   2.515799
    12  C    3.200000   3.369953   3.672044   3.687303   3.517871
    13  H    3.635791   3.484786   3.950971   4.322925   3.903128
    14  H    3.519263   4.040328   4.470745   4.261934   3.562751
    15  C    3.654802   3.663959   3.383444   3.200000   4.280196
    16  H    4.224441   4.475197   4.090381   3.556296   4.789646
    17  H    4.320273   3.978940   3.512678   3.627111   5.046485
                    6          7          8          9         10
     6  H    0.000000
     7  H    2.721523   0.000000
     8  H    4.378717   2.748296   0.000000
     9  C    3.315062   3.315090   2.169468   0.000000
    10  H    3.983656   3.983736   2.515614   1.070000   0.000000
    11  H    3.983619   3.983624   2.515647   1.070000   1.747303
    12  C    3.807835   4.305204   4.325250   3.407541   4.420218
    13  H    3.606184   4.424893   5.054953   4.148076   5.177259
    14  H    4.508920   5.222917   4.857555   3.678096   4.565349
    15  C    4.300692   3.840135   3.526936   3.377918   4.389505
    16  H    5.226645   4.589798   3.624032   3.653542   4.536859
    17  H    4.469576   3.654060   3.882706   4.124512   5.150706
                   11         12         13         14         15
    11  H    0.000000
    12  C    2.908651   0.000000
    13  H    3.842362   1.104686   0.000000
    14  H    2.965672   1.073524   1.852234   0.000000
    15  C    2.864303   1.431067   2.168541   2.155007   0.000000
    16  H    2.909083   2.150628   3.055514   2.427032   1.082042
    17  H    3.796892   2.162907   2.427032   3.050630   1.102006
                   16         17
    16  H    0.000000
    17  H    1.852234   0.000000
 Stoichiometry    C7H10
 Framework group  C1[X(C7H10)]
 Deg. of freedom    45
 Full point group                 C1      NOp   1
 Largest Abelian subgroup         C1      NOp   1
 Largest concise Abelian subgroup C1      NOp   1
                         Standard orientation:                         
 ---------------------------------------------------------------------
 Center     Atomic      Atomic             Coordinates (Angstroms)
 Number     Number       Type             X           Y           Z
 ---------------------------------------------------------------------
      1          6           0       -0.959941    1.118268   -0.404801
      2          6           0       -1.060092    0.767073    0.948541
      3          6           0       -1.078444   -0.666168    1.014417
      4          6           0       -0.988984   -1.142451   -0.301003
      5          1           0       -0.916975    2.100663   -0.873371
      6          1           0       -1.113708    1.450462    1.789336
      7          1           0       -1.148565   -1.267969    1.914270
      8          1           0       -0.971907   -2.164316   -0.677734
      9          6           0       -0.917029   -0.049892   -1.160222
     10          1           0       -1.744620   -0.070351   -1.838141
     11          1           0       -0.001858   -0.087075   -1.713376
     12          6           0        2.183011    0.707423    0.034587
     13          1           0        2.395400    1.215873    0.992031
     14          1           0        2.529465    1.197934   -0.855257
     15          6           0        2.164027   -0.723440    0.049638
     16          1           0        2.525775   -1.229019   -0.835993
     17          1           0        2.391710   -1.211080    1.011295
 ---------------------------------------------------------------------
 Rotational constants (GHZ):           3.7550755           1.9014712           1.8071510
 Standard basis: 3-21G (6D, 7F)
 There are    83 symmetry adapted cartesian basis functions of A   symmetry.
 There are    83 symmetry adapted basis functions of A   symmetry.
    83 basis functions,   135 primitive gaussians,    83 cartesian basis functions
    26 alpha electrons       26 beta electrons
       nuclear repulsion energy       276.2203438233 Hartrees.
 NAtoms=   17 NActive=   17 NUniq=   17 SFac= 1.00D+00 NAtFMM=   60 NAOKFM=F Big=F
 Integral buffers will be    131072 words long.
 Raffenetti 2 integral format.
 Two-electron integral symmetry is turned on.
 One-electron integrals computed using PRISM.
 NBasis=    83 RedAO= T EigKep=  4.15D-03  NBF=    83
 NBsUse=    83 1.00D-06 EigRej= -1.00D+00 NBFU=    83
 ExpMin= 1.83D-01 ExpMax= 1.72D+02 ExpMxC= 1.72D+02 IAcc=3 IRadAn=         5 AccDes= 0.00D+00
 Harris functional with IExCor=  402 and IRadAn=       5 diagonalized for initial guess.
 HarFok:  IExCor=  402 AccDes= 0.00D+00 IRadAn=         5 IDoV= 1 UseB2=F ITyADJ=14
 ICtDFT=  3500011 ScaDFX=  1.000000  1.000000  1.000000  1.000000
 FoFCou: FMM=F IPFlag=           0 FMFlag=      100000 FMFlg1=           0
         NFxFlg=           0 DoJE=T BraDBF=F KetDBF=T FulRan=T
         wScrn=  0.000000 ICntrl=       500 IOpCl=  0 I1Cent=   200000004 NGrid=           0
         NMat0=    1 NMatS0=      1 NMatT0=    0 NMatD0=    1 NMtDS0=    0 NMtDT0=    0
 Petite list used in FoFCou.
 Keep R1 ints in memory in canonical form, NReq=7891734.
 Requested convergence on RMS density matrix=1.00D-08 within 128 cycles.
 Requested convergence on MAX density matrix=1.00D-06.
 Requested convergence on             energy=1.00D-06.
 No special actions if energy rises.
 Integral accuracy reduced to 1.0D-05 until final iterations.
 Initial convergence to 1.0D-05 achieved.  Increase integral accuracy.
 SCF Done:  E(RB3LYP) =  -271.142744366     A.U. after   13 cycles
            NFock= 13  Conv=0.83D-08     -V/T= 2.0084

 **********************************************************************

            Population analysis using the SCF Density.

 **********************************************************************

 Orbital symmetries:
       Occupied  (A) (A) (A) (A) (A) (A) (A) (A) (A) (A) (A) (A)
                 (A) (A) (A) (A) (A) (A) (A) (A) (A) (A) (A) (A)
                 (A) (A)
       Virtual   (A) (A) (A) (A) (A) (A) (A) (A) (A) (A) (A) (A)
                 (A) (A) (A) (A) (A) (A) (A) (A) (A) (A) (A) (A)
                 (A) (A) (A) (A) (A) (A) (A) (A) (A) (A) (A) (A)
                 (A) (A) (A) (A) (A) (A) (A) (A) (A) (A) (A) (A)
                 (A) (A) (A) (A) (A) (A) (A) (A) (A)
 The electronic state is 1-A.
 Alpha  occ. eigenvalues --  -10.12126 -10.11994 -10.11468 -10.11352 -10.10907
 Alpha  occ. eigenvalues --  -10.10889 -10.09768  -0.87473  -0.73282  -0.71504
 Alpha  occ. eigenvalues --   -0.68971  -0.56911  -0.53704  -0.53672  -0.51282
 Alpha  occ. eigenvalues --   -0.45916  -0.45077  -0.39162  -0.38501  -0.37192
 Alpha  occ. eigenvalues --   -0.36816  -0.35822  -0.34965  -0.28683  -0.23660
 Alpha  occ. eigenvalues --   -0.19952
 Alpha virt. eigenvalues --   -0.00572  -0.00296   0.09319   0.12755   0.14660
 Alpha virt. eigenvalues --    0.16268   0.18362   0.18854   0.19554   0.20295
 Alpha virt. eigenvalues --    0.20463   0.21732   0.26573   0.26827   0.27486
 Alpha virt. eigenvalues --    0.32954   0.39401   0.42867   0.48142   0.65951
 Alpha virt. eigenvalues --    0.67790   0.70319   0.70826   0.72040   0.73879
 Alpha virt. eigenvalues --    0.76140   0.77833   0.80133   0.81770   0.83796
 Alpha virt. eigenvalues --    0.84018   0.85625   0.90977   0.93376   0.94508
 Alpha virt. eigenvalues --    0.97374   0.99816   1.01331   1.03383   1.03944
 Alpha virt. eigenvalues --    1.05659   1.05833   1.07177   1.08487   1.09060
 Alpha virt. eigenvalues --    1.15882   1.22326   1.32048   1.33172   1.38882
 Alpha virt. eigenvalues --    1.39060   1.51016   1.62857   1.82726   1.87526
 Alpha virt. eigenvalues --    2.09017   2.25061
          Condensed to atoms (all electrons):
               1          2          3          4          5          6
     1  C    5.267462   0.542461  -0.118778  -0.142984   0.393422  -0.033786
     2  C    0.542461   5.158671   0.406701  -0.118668  -0.024395   0.387085
     3  C   -0.118778   0.406701   5.158759   0.542650   0.003303  -0.033468
     4  C   -0.142984  -0.118668   0.542650   5.266645   0.004852   0.003790
     5  H    0.393422  -0.024395   0.003303   0.004852   0.498084  -0.001481
     6  H   -0.033786   0.387085  -0.033468   0.003790  -0.001481   0.502800
     7  H    0.003791  -0.033490   0.387107  -0.033763  -0.000048  -0.001025
     8  H    0.004852   0.003302  -0.024367   0.393432  -0.000065  -0.000048
     9  C    0.309203  -0.143214  -0.143158   0.309129  -0.046576   0.005209
    10  H   -0.044907   0.003061   0.003067  -0.044988  -0.001061  -0.000115
    11  H   -0.043293   0.002514   0.002532  -0.043280  -0.001169  -0.000110
    12  C    0.008004   0.001683  -0.002000  -0.002662  -0.000098   0.000016
    13  H   -0.000100   0.000047  -0.000014   0.000017  -0.000004   0.000035
    14  H    0.000017  -0.000016   0.000024   0.000036   0.000038   0.000000
    15  C   -0.002904  -0.002114   0.001670   0.008135  -0.000023  -0.000005
    16  H    0.000042   0.000027  -0.000006   0.000007  -0.000000  -0.000000
    17  H    0.000024  -0.000014  -0.000011  -0.000125   0.000000  -0.000001
               7          8          9         10         11         12
     1  C    0.003791   0.004852   0.309203  -0.044907  -0.043293   0.008004
     2  C   -0.033490   0.003302  -0.143214   0.003061   0.002514   0.001683
     3  C    0.387107  -0.024367  -0.143158   0.003067   0.002532  -0.002000
     4  C   -0.033763   0.393432   0.309129  -0.044988  -0.043280  -0.002662
     5  H   -0.000048  -0.000065  -0.046576  -0.001061  -0.001169  -0.000098
     6  H   -0.001025  -0.000048   0.005209  -0.000115  -0.000110   0.000016
     7  H    0.502772  -0.001480   0.005208  -0.000115  -0.000110  -0.000004
     8  H   -0.001480   0.497793  -0.046556  -0.001062  -0.001181  -0.000020
     9  C    0.005208  -0.046556   5.590137   0.344390   0.337417  -0.003239
    10  H   -0.000115  -0.001062   0.344390   0.511660  -0.015468   0.000123
    11  H   -0.000110  -0.001181   0.337417  -0.015468   0.494436   0.004545
    12  C   -0.000004  -0.000020  -0.003239   0.000123   0.004545   5.204749
    13  H   -0.000001  -0.000000   0.000030  -0.000000   0.000027   0.374977
    14  H   -0.000000  -0.000000  -0.000085   0.000002   0.000221   0.373436
    15  C    0.000016  -0.000103  -0.003672   0.000134   0.005359   0.506279
    16  H    0.000000   0.000027  -0.000130   0.000003   0.000268  -0.047534
    17  H    0.000028  -0.000003   0.000038  -0.000000   0.000027  -0.043910
              13         14         15         16         17
     1  C   -0.000100   0.000017  -0.002904   0.000042   0.000024
     2  C    0.000047  -0.000016  -0.002114   0.000027  -0.000014
     3  C   -0.000014   0.000024   0.001670  -0.000006  -0.000011
     4  C    0.000017   0.000036   0.008135   0.000007  -0.000125
     5  H   -0.000004   0.000038  -0.000023  -0.000000   0.000000
     6  H    0.000035   0.000000  -0.000005  -0.000000  -0.000001
     7  H   -0.000001  -0.000000   0.000016   0.000000   0.000028
     8  H   -0.000000  -0.000000  -0.000103   0.000027  -0.000003
     9  C    0.000030  -0.000085  -0.003672  -0.000130   0.000038
    10  H   -0.000000   0.000002   0.000134   0.000003  -0.000000
    11  H    0.000027   0.000221   0.005359   0.000268   0.000027
    12  C    0.374977   0.373436   0.506279  -0.047534  -0.043910
    13  H    0.522963  -0.033653  -0.043560   0.003405  -0.004666
    14  H   -0.033653   0.525589  -0.046622  -0.004183   0.003385
    15  C   -0.043560  -0.046622   5.206291   0.372194   0.375373
    16  H    0.003405  -0.004183   0.372194   0.531146  -0.034120
    17  H   -0.004666   0.003385   0.375373  -0.034120   0.523257
 Mulliken charges:
               1
     1  C   -0.142526
     2  C   -0.183640
     3  C   -0.184013
     4  C   -0.142224
     5  H    0.175220
     6  H    0.171102
     7  H    0.171112
     8  H    0.175479
     9  C   -0.514132
    10  H    0.245275
    11  H    0.257266
    12  C   -0.374346
    13  H    0.180495
    14  H    0.181810
    15  C   -0.376448
    16  H    0.178852
    17  H    0.180718
 Sum of Mulliken charges =  -0.00000
 Mulliken charges with hydrogens summed into heavy atoms:
               1
     1  C    0.032694
     2  C   -0.012538
     3  C   -0.012900
     4  C    0.033256
     9  C   -0.011591
    12  C   -0.012041
    15  C   -0.016879
 Electronic spatial extent (au):  <R**2>=            821.4832
 Charge=             -0.0000 electrons
 Dipole moment (field-independent basis, Debye):
    X=              0.5295    Y=             -0.0032    Z=             -0.6789  Tot=              0.8610
 Quadrupole moment (field-independent basis, Debye-Ang):
   XX=            -45.0931   YY=            -41.3591   ZZ=            -39.0256
   XY=              0.1287   XZ=              0.4602   YZ=              0.0786
 Traceless Quadrupole moment (field-independent basis, Debye-Ang):
   XX=             -3.2671   YY=              0.4668   ZZ=              2.8003
   XY=              0.1287   XZ=              0.4602   YZ=              0.0786
 Octapole moment (field-independent basis, Debye-Ang**2):
  XXX=              8.0784  YYY=             -0.0244  ZZZ=              1.4637  XYY=              1.0975
  XXY=             -0.1730  XXZ=             -3.2071  XZZ=             -0.6254  YZZ=              0.1739
  YYZ=             -0.6879  XYZ=             -0.1162
 Hexadecapole moment (field-independent basis, Debye-Ang**3):
 XXXX=           -674.4087 YYYY=           -252.4273 ZZZZ=           -213.1601 XXXY=              0.6862
 XXXZ=              5.6350 YYYX=              0.5356 YYYZ=              0.4688 ZZZX=             -1.0830
 ZZZY=             -0.5124 XXYY=           -145.1875 XXZZ=           -130.1179 YYZZ=            -72.1524
 XXYZ=              0.2369 YYXZ=              0.1912 ZZXY=              0.0454
 N-N= 2.762203438233D+02 E-N=-1.179826223532D+03  KE= 2.688860062105D+02
 Calling FoFJK, ICntrl=      2127 FMM=F ISym2X=0 I1Cent= 0 IOpClX= 0 NMat=1 NMatS=1 NMatT=0.
 ***** Axes restored to original set *****
 -------------------------------------------------------------------
 Center     Atomic                   Forces (Hartrees/Bohr)
 Number     Number              X              Y              Z
 -------------------------------------------------------------------
      1        6           0.053265181   -0.081414025    0.002542284
      2        6          -0.034038600   -0.021976245   -0.001842569
      3        6          -0.015780010    0.037434972   -0.001896341
      4        6           0.090086434    0.037034206    0.002761518
      5        1           0.010004905   -0.000362940   -0.000264095
      6        1          -0.001565920    0.003198438    0.000049499
      7        1          -0.003094968   -0.001754903    0.000063207
      8        1           0.008480733   -0.005336030   -0.000220793
      9        6          -0.067271871    0.020615654   -0.002212412
     10        1          -0.020451703    0.006291735   -0.015908177
     11        1          -0.018282124    0.005689645    0.014879264
     12        6           0.039552660    0.075711822    0.028778466
     13        1          -0.009094235    0.002804331   -0.017410687
     14        1          -0.011098256   -0.006061032   -0.011577723
     15        6          -0.011091749   -0.082555173    0.033916725
     16        1          -0.002666918    0.007928973   -0.013562609
     17        1          -0.006953560    0.002750572   -0.018095557
 -------------------------------------------------------------------
 Cartesian Forces:  Max     0.090086434 RMS     0.030125411

 GradGradGradGradGradGradGradGradGradGradGradGradGradGradGradGradGradGrad
 Berny optimization.
 FormGI is forming the generalized inverse of G from B-inverse, IUseBI=4.
 Internal  Forces:  Max     0.078993209 RMS     0.015780257
 Search for a local minimum.
 Step number   1 out of a maximum of  102
 All quantities printed in internal units (Hartrees-Bohrs-Radians)
 Mixed Optimization -- RFO/linear search
 Second derivative matrix not updated -- first step.
 ITU=  0
     Eigenvalues ---    0.00788   0.01373   0.01514   0.01792   0.01910
     Eigenvalues ---    0.01933   0.02130   0.02138   0.02177   0.02260
     Eigenvalues ---    0.02461   0.03816   0.04296   0.04845   0.05489
     Eigenvalues ---    0.07142   0.07930   0.08577   0.09763   0.13516
     Eigenvalues ---    0.14514   0.16000   0.16000   0.16000   0.16000
     Eigenvalues ---    0.17355   0.22000   0.30209   0.33169   0.33461
     Eigenvalues ---    0.33896   0.34897   0.34902   0.35138   0.35418
     Eigenvalues ---    0.35419   0.36521   0.36858   0.37230   0.40317
     Eigenvalues ---    0.43917   0.45646   0.465691000.000001000.00000
     Eigenvalues --- 1000.000001000.000001000.000001000.000001000.00000
     Eigenvalues --- 1000.000001000.000001000.000001000.000001000.00000
     Eigenvalues --- 1000.000001000.000001000.000001000.000001000.00000
     Eigenvalues --- 1000.000001000.000001000.000001000.000001000.00000
     Eigenvalues --- 1000.000001000.000001000.000001000.000001000.00000
     Eigenvalues --- 1000.000001000.000001000.000001000.000001000.00000
     Eigenvalues --- 1000.000001000.000001000.000001000.000001000.00000
     Eigenvalues --- 1000.000001000.000001000.000001000.000001000.00000
     Eigenvalues --- 1000.000001000.000001000.000001000.000001000.00000
     Eigenvalues --- 1000.000001000.000001000.000001000.000001000.00000
     Eigenvalues --- 1000.000001000.000001000.000001000.00000
 RFO step:  Lambda=-6.16611666D-02 EMin= 7.88437210D-03
 Linear search not attempted -- first point.
 Maximum step size (   0.300) exceeded in Quadratic search.
    -- Step size scaled by   0.777
 Iteration  1 RMS(Cart)=  0.04212755 RMS(Int)=  0.00166613
 Iteration  2 RMS(Cart)=  0.00133094 RMS(Int)=  0.00105032
 Iteration  3 RMS(Cart)=  0.00000273 RMS(Int)=  0.00105032
 Iteration  4 RMS(Cart)=  0.00000001 RMS(Int)=  0.00105032
 Iteration  1 RMS(Cart)=  0.00005270 RMS(Int)=  0.00001277
 Iteration  2 RMS(Cart)=  0.00000844 RMS(Int)=  0.00001364
 Iteration  3 RMS(Cart)=  0.00000165 RMS(Int)=  0.00001399
 Iteration  4 RMS(Cart)=  0.00000036 RMS(Int)=  0.00001407
 Variable       Old X    -DE/DX   Delta X   Delta X   Delta X     New X
                                 (Linear)    (Quad)   (Total)
    R1        2.64892  -0.02665   0.00000  -0.04397  -0.04402   2.60491
    R2        2.05842  -0.00617   0.00000  -0.01166  -0.01166   2.04675
    R3        2.63012   0.07899   0.00000   0.12567   0.12576   2.75588
    R4        6.04712   0.00744   0.00000   0.00000   0.00000   6.04712
    R5        2.71151   0.03034   0.00000   0.03651   0.03635   2.74787
    R6        2.05001  -0.00350   0.00000  -0.00654  -0.00654   2.04347
    R7        2.64911  -0.02675   0.00000  -0.04416  -0.04421   2.60490
    R8        2.05000  -0.00350   0.00000  -0.00654  -0.00654   2.04346
    R9        2.05835  -0.00616   0.00000  -0.01165  -0.01165   2.04670
   R10        2.63013   0.07885   0.00000   0.12552   0.12564   2.75577
   R11        6.04712   0.00810   0.00000   0.00000  -0.00000   6.04712
   R12        2.02201   0.02534   0.00000   0.04536   0.04536   2.06737
   R13        2.02201   0.01363   0.00000   0.02963   0.02931   2.05132
   R14        5.49655  -0.00520   0.00000   0.00405   0.00450   5.50105
   R15        5.60431  -0.00553   0.00000  -0.07121  -0.07240   5.53190
   R16        5.41275  -0.00335   0.00000   0.01179   0.01202   5.42477
   R17        5.49737  -0.00622   0.00000  -0.07277  -0.07364   5.42373
   R18        2.08755  -0.01263   0.00000  -0.02494  -0.02494   2.06262
   R19        2.02867   0.01224   0.00000   0.01872   0.01984   2.04850
   R20        2.70433  -0.06178   0.00000  -0.11624  -0.11580   2.58853
   R21        2.04476   0.00695   0.00000   0.00877   0.00997   2.05474
   R22        2.08249  -0.01088   0.00000  -0.02132  -0.02132   2.06117
    A1        2.27063  -0.00452   0.00000  -0.02755  -0.02757   2.24306
    A2        1.89225  -0.00720   0.00000  -0.00180  -0.00180   1.89044
    A3        2.12031   0.01172   0.00000   0.02935   0.02932   2.14963
    A4        1.87077   0.01669   0.00000   0.02450   0.02426   1.89503
    A5        2.20681  -0.00769   0.00000  -0.00994  -0.00983   2.19698
    A6        2.20561  -0.00900   0.00000  -0.01455  -0.01444   2.19117
    A7        1.87074   0.01672   0.00000   0.02453   0.02428   1.89503
    A8        2.20561  -0.00902   0.00000  -0.01456  -0.01444   2.19117
    A9        2.20683  -0.00771   0.00000  -0.00997  -0.00985   2.19698
   A10        2.27088  -0.00457   0.00000  -0.02765  -0.02767   2.24321
   A11        1.89218  -0.00714   0.00000  -0.00170  -0.00170   1.89048
   A12        2.12012   0.01170   0.00000   0.02935   0.02932   2.14944
   A13        1.89884  -0.01908   0.00000  -0.04552  -0.04529   1.85355
   A14        1.91355   0.00690   0.00000   0.02589   0.02619   1.93974
   A15        1.91360   0.00699   0.00000   0.01030   0.00991   1.92351
   A16        1.91360   0.00736   0.00000   0.02766   0.02775   1.94136
   A17        1.91355   0.00599   0.00000   0.00611   0.00620   1.91975
   A18        1.91063  -0.00814   0.00000  -0.02435  -0.02435   1.88628
   A19        1.89896  -0.00568   0.00000  -0.01423  -0.01418   1.88478
   A20        2.17171  -0.00647   0.00000  -0.02380  -0.02377   2.14794
   A21        1.91375  -0.00584   0.00000  -0.01370  -0.01371   1.90004
   A22        2.21539  -0.00730   0.00000  -0.02348  -0.02356   2.19183
   A23        0.75730  -0.00509   0.00000  -0.00172  -0.00268   0.75462
   A24        0.75649  -0.00498   0.00000  -0.00200  -0.00273   0.75376
   A25        0.85157   0.00125   0.00000   0.02589   0.02429   0.87586
   A26        2.48323  -0.01294   0.00000  -0.05738  -0.05765   2.42558
   A27        2.03316  -0.00208   0.00000   0.00544   0.00028   2.03344
   A28        2.04164  -0.00150   0.00000   0.01635   0.01648   2.05811
   A29        2.05992   0.01408   0.00000   0.04517   0.04210   2.10202
   A30        2.48432  -0.01379   0.00000  -0.06136  -0.06150   2.42282
   A31        2.04220   0.01602   0.00000   0.05166   0.04831   2.09051
   A32        2.03630  -0.00105   0.00000   0.01939   0.01904   2.05535
   A33        2.02463  -0.00231   0.00000   0.00789   0.00234   2.02697
    D1       -3.14148  -0.00008   0.00000   0.00188   0.00239  -3.13909
    D2        0.00009  -0.00040   0.00000  -0.00338  -0.00318  -0.00309
    D3        0.00001   0.00093   0.00000   0.01277   0.01316   0.01317
    D4        3.14157   0.00062   0.00000   0.00751   0.00759  -3.13402
    D5        0.00007  -0.00147   0.00000  -0.02075  -0.02060  -0.02053
    D6        2.09267   0.00003   0.00000   0.00079   0.00055   2.09321
    D7       -2.09250  -0.00136   0.00000  -0.00670  -0.00675  -2.09925
    D8        3.14156  -0.00056   0.00000  -0.01098  -0.01053   3.13103
    D9       -1.04903   0.00094   0.00000   0.01056   0.01062  -1.03841
   D10        1.04900  -0.00045   0.00000   0.00307   0.00332   1.05231
   D11       -0.00008  -0.00006   0.00000  -0.00022  -0.00021  -0.00028
   D12       -3.14156  -0.00027   0.00000  -0.00511  -0.00542   3.13620
   D13        3.14154   0.00025   0.00000   0.00504   0.00534  -3.13630
   D14        0.00006   0.00005   0.00000   0.00015   0.00013   0.00018
   D15       -3.14146   0.00031   0.00000  -0.00107  -0.00166   3.14007
   D16        0.00012  -0.00084   0.00000  -0.01242  -0.01284  -0.01272
   D17        0.00003   0.00051   0.00000   0.00382   0.00357   0.00360
   D18       -3.14158  -0.00063   0.00000  -0.00753  -0.00761   3.13400
   D19       -0.00012   0.00144   0.00000   0.02061   0.02047   0.02035
   D20       -2.09268   0.00022   0.00000   0.00018   0.00033  -2.09235
   D21        2.09248   0.00195   0.00000   0.00916   0.00906   2.10154
   D22        3.14146   0.00041   0.00000   0.01043   0.01002  -3.13171
   D23        1.04890  -0.00081   0.00000  -0.01000  -0.01012   1.03878
   D24       -1.04913   0.00092   0.00000  -0.00102  -0.00139  -1.05052
   D25        0.76911  -0.00106   0.00000  -0.00856  -0.00865   0.76046
   D26        0.49266  -0.00556   0.00000  -0.02847  -0.02752   0.46514
   D27        1.29993  -0.01415   0.00000  -0.03538  -0.03515   1.26478
   D28        1.55830  -0.00972   0.00000  -0.01478  -0.01585   1.54245
   D29       -1.31445   0.01438   0.00000   0.03717   0.03699  -1.27745
   D30       -1.59090   0.00988   0.00000   0.01726   0.01813  -1.57277
   D31       -0.78362   0.00129   0.00000   0.01035   0.01049  -0.77313
   D32       -0.52526   0.00573   0.00000   0.03096   0.02980  -0.49546
   D33        2.86890   0.00669   0.00000   0.01451   0.01435   2.88325
   D34        2.59245   0.00219   0.00000  -0.00540  -0.00452   2.58794
   D35       -2.88346  -0.00640   0.00000  -0.01231  -0.01215  -2.89561
   D36       -2.62509  -0.00197   0.00000   0.00829   0.00715  -2.61794
   D37       -0.29261  -0.00486   0.00000  -0.03495  -0.03327  -0.32588
   D38       -2.46242  -0.00153   0.00000  -0.01546  -0.01393  -2.47635
   D39        0.42052   0.00419   0.00000   0.03087   0.02919   0.44972
   D40        2.51071   0.00160   0.00000   0.01019   0.00875   2.51946
   D41       -2.53903  -0.01795   0.00000  -0.12153  -0.12274  -2.66177
   D42       -0.02964   0.00077   0.00000   0.00343   0.00359  -0.02605
   D43        0.02528  -0.00028   0.00000  -0.00243  -0.00279   0.02248
   D44        2.53467   0.01844   0.00000   0.12253   0.12354   2.65820
         Item               Value     Threshold  Converged?
 Maximum Force            0.078877     0.000450     NO 
 RMS     Force            0.015898     0.000300     NO 
 Maximum Displacement     0.175030     0.001800     NO 
 RMS     Displacement     0.042013     0.001200     NO 
 Predicted change in Energy=-3.330183D-02
 GradGradGradGradGradGradGradGradGradGradGradGradGradGradGradGradGradGrad

                          Input orientation:                          
 ---------------------------------------------------------------------
 Center     Atomic      Atomic             Coordinates (Angstroms)
 Number     Number       Type             X           Y           Z
 ---------------------------------------------------------------------
      1          6           0        1.929980   -1.354509    0.038195
      2          6           0        3.307930   -1.320858    0.021958
      3          6           0        3.737457    0.068361    0.024899
      4          6           0        2.618942    0.873812    0.042540
      5          1           0        1.276371   -2.218144    0.043099
      6          1           0        3.962817   -2.181318    0.014060
      7          1           0        4.763720    0.409063    0.019382
      8          1           0        2.566667    1.955588    0.050627
      9          6           0        1.437974    0.018330    0.033794
     10          1           0        0.815350    0.211483   -0.844771
     11          1           0        0.838201    0.204563    0.919189
     12          6           0        2.217058   -0.963789    3.201251
     13          1           0        2.994406   -1.702790    3.403626
     14          1           0        1.198893   -1.257729    3.429373
     15          6           0        2.573890    0.358707    3.200488
     16          1           0        1.836127    1.117220    3.450744
     17          1           0        3.612034    0.604971    3.426964
 ---------------------------------------------------------------------
                    Distance matrix (angstroms):
                    1          2          3          4          5
     1  C    0.000000
     2  C    1.378457   0.000000
     3  C    2.300372   1.454108   0.000000
     4  C    2.332403   2.300370   1.378454   0.000000
     5  H    1.083095   2.220991   3.359372   3.370859   0.000000
     6  H    2.194681   1.081356   2.260964   3.337758   2.686856
     7  H    3.337757   2.260963   1.081353   2.194675   4.366278
     8  H    3.370797   3.359374   2.221044   1.083069   4.368634
     9  C    1.458347   2.300065   2.300045   1.458291   2.242324
    10  H    2.115268   3.051596   3.052133   2.116352   2.627535
    11  H    2.097341   3.038337   3.037103   2.094624   2.613243
    12  C    3.200000   3.380149   3.669627   3.676377   3.525936
    13  H    3.546890   3.417579   3.886502   4.251677   3.809249
    14  H    3.470438   4.007805   4.448963   4.246251   3.520689
    15  C    3.653742   3.669169   3.394489   3.200000   4.277011
    16  H    4.214706   4.457241   4.056054   3.505411   4.801045
    17  H    4.260589   3.923692   3.446408   3.537348   4.987569
                    6          7          8          9         10
     6  H    0.000000
     7  H    2.711373   0.000000
     8  H    4.366299   2.686961   0.000000
     9  C    3.348682   3.348651   2.242143   0.000000
    10  H    4.045941   4.046655   2.628831   1.094004   0.000000
    11  H    4.034218   4.032514   2.609231   1.085512   1.764121
    12  C    3.832524   4.300523   4.309457   3.406511   4.440309
    13  H    3.557522   4.363886   4.980893   4.091517   5.144084
    14  H    4.489617   5.207132   4.859232   3.635305   4.535857
    15  C    4.305132   3.862295   3.531530   3.381437   4.413418
    16  H    5.216700   4.565799   3.577337   3.611320   4.507082
    17  H    4.419769   3.602273   3.783729   4.072381   5.120936
                   11         12         13         14         15
    11  H    0.000000
    12  C    2.911031   0.000000
    13  H    3.802584   1.091490   0.000000
    14  H    2.927357   1.084021   1.850030   0.000000
    15  C    2.870663   1.369791   2.113734   2.134449   0.000000
    16  H    2.870117   2.130247   3.048982   2.459047   1.087320
    17  H    3.760773   2.111376   2.389094   3.048427   1.090724
                   16         17
    16  H    0.000000
    17  H    1.848461   0.000000
 Stoichiometry    C7H10
 Framework group  C1[X(C7H10)]
 Deg. of freedom    45
 Full point group                 C1      NOp   1
 Largest Abelian subgroup         C1      NOp   1
 Largest concise Abelian subgroup C1      NOp   1
                         Standard orientation:                         
 ---------------------------------------------------------------------
 Center     Atomic      Atomic             Coordinates (Angstroms)
 Number     Number       Type             X           Y           Z
 ---------------------------------------------------------------------
      1          6           0       -0.950788    1.154767   -0.378843
      2          6           0       -1.076764    0.768330    0.938328
      3          6           0       -1.089002   -0.684594    0.995696
      4          6           0       -0.970789   -1.175735   -0.286857
      5          1           0       -0.905538    2.157282   -0.786287
      6          1           0       -1.148929    1.431681    1.789263
      7          1           0       -1.171909   -1.277485    1.896213
      8          1           0       -0.943594   -2.207796   -0.614195
      9          6           0       -0.896833   -0.045508   -1.205404
     10          1           0       -1.720007   -0.065855   -1.925692
     11          1           0        0.036203   -0.077784   -1.759242
     12          6           0        2.184252    0.680560    0.053187
     13          1           0        2.313545    1.193549    1.007899
     14          1           0        2.489027    1.224571   -0.833528
     15          6           0        2.173217   -0.689180    0.057368
     16          1           0        2.492162   -1.234467   -0.827618
     17          1           0        2.319281   -1.195533    1.012329
 ---------------------------------------------------------------------
 Rotational constants (GHZ):           3.6983200           1.9049476           1.8029762
 Standard basis: 3-21G (6D, 7F)
 There are    83 symmetry adapted cartesian basis functions of A   symmetry.
 There are    83 symmetry adapted basis functions of A   symmetry.
    83 basis functions,   135 primitive gaussians,    83 cartesian basis functions
    26 alpha electrons       26 beta electrons
       nuclear repulsion energy       275.0508713397 Hartrees.
 NAtoms=   17 NActive=   17 NUniq=   17 SFac= 1.00D+00 NAtFMM=   60 NAOKFM=F Big=F
 Integral buffers will be    131072 words long.
 Raffenetti 2 integral format.
 Two-electron integral symmetry is turned on.
 One-electron integrals computed using PRISM.
 NBasis=    83 RedAO= T EigKep=  4.38D-03  NBF=    83
 NBsUse=    83 1.00D-06 EigRej= -1.00D+00 NBFU=    83
 Initial guess from the checkpoint file:  "C3.chk"
 B after Tr=     0.000000    0.000000    0.000000
         Rot=    0.999984   -0.003231    0.004407   -0.001336 Ang=  -0.64 deg.
 ExpMin= 1.83D-01 ExpMax= 1.72D+02 ExpMxC= 1.72D+02 IAcc=3 IRadAn=         5 AccDes= 0.00D+00
 Harris functional with IExCor=  402 and IRadAn=       5 diagonalized for initial guess.
 HarFok:  IExCor=  402 AccDes= 0.00D+00 IRadAn=         5 IDoV= 1 UseB2=F ITyADJ=14
 ICtDFT=  3500011 ScaDFX=  1.000000  1.000000  1.000000  1.000000
 FoFCou: FMM=F IPFlag=           0 FMFlag=      100000 FMFlg1=           0
         NFxFlg=           0 DoJE=T BraDBF=F KetDBF=T FulRan=T
         wScrn=  0.000000 ICntrl=       500 IOpCl=  0 I1Cent=   200000004 NGrid=           0
         NMat0=    1 NMatS0=      1 NMatT0=    0 NMatD0=    1 NMtDS0=    0 NMtDT0=    0
 Petite list used in FoFCou.
 Keep R1 ints in memory in canonical form, NReq=7891734.
 Requested convergence on RMS density matrix=1.00D-08 within 128 cycles.
 Requested convergence on MAX density matrix=1.00D-06.
 Requested convergence on             energy=1.00D-06.
 No special actions if energy rises.
 Integral accuracy reduced to 1.0D-05 until final iterations.
 Initial convergence to 1.0D-05 achieved.  Increase integral accuracy.
 SCF Done:  E(RB3LYP) =  -271.177782526     A.U. after   13 cycles
            NFock= 13  Conv=0.32D-08     -V/T= 2.0090
 Calling FoFJK, ICntrl=      2127 FMM=F ISym2X=0 I1Cent= 0 IOpClX= 0 NMat=1 NMatS=1 NMatT=0.
 ***** Axes restored to original set *****
 -------------------------------------------------------------------
 Center     Atomic                   Forces (Hartrees/Bohr)
 Number     Number              X              Y              Z
 -------------------------------------------------------------------
      1        6           0.030753959   -0.027124925   -0.000817342
      2        6          -0.020909274   -0.011986197   -0.001005344
      3        6          -0.010508018    0.021766977   -0.001030642
      4        6           0.040910029    0.005002118   -0.000953148
      5        1           0.003896633    0.000002445   -0.000349091
      6        1           0.000616739    0.001065262    0.000168814
      7        1          -0.000088994   -0.001234613    0.000199842
      8        1           0.003223504   -0.002190485   -0.000292559
      9        6          -0.033917895    0.010425468   -0.002569266
     10        1          -0.005012486    0.001628051   -0.003095951
     11        1          -0.008022622    0.002266409    0.006329956
     12        6           0.015711808    0.035986730    0.024893367
     13        1          -0.004444407   -0.002311945   -0.012846637
     14        1          -0.003098873   -0.002835777   -0.011331890
     15        6          -0.007490363   -0.038239520    0.028874137
     16        1           0.000017496    0.003331543   -0.012432520
     17        1          -0.001637239    0.004448460   -0.013741726
 -------------------------------------------------------------------
 Cartesian Forces:  Max     0.040910029 RMS     0.014833801

 GradGradGradGradGradGradGradGradGradGradGradGradGradGradGradGradGradGrad
 Berny optimization.
 Using GEDIIS/GDIIS optimizer.
 FormGI is forming the generalized inverse of G from B-inverse, IUseBI=4.
 Internal  Forces:  Max     0.029937865 RMS     0.006935434
 Search for a local minimum.
 Step number   2 out of a maximum of  102
 All quantities printed in internal units (Hartrees-Bohrs-Radians)
 Mixed Optimization -- RFO/linear search
 Update second derivatives using D2CorX and points    1    2
 DE= -3.50D-02 DEPred=-3.33D-02 R= 1.05D+00
 TightC=F SS=  1.41D+00  RLast= 3.59D-01 DXNew= 5.0454D-01 1.0779D+00
 Trust test= 1.05D+00 RLast= 3.59D-01 DXMaxT set to 5.05D-01
 ITU=  1  0
 Use linear search instead of GDIIS.
     Eigenvalues ---    0.00819   0.01354   0.01473   0.01793   0.01911
     Eigenvalues ---    0.01927   0.02135   0.02141   0.02180   0.02257
     Eigenvalues ---    0.02427   0.03802   0.04243   0.04742   0.05209
     Eigenvalues ---    0.07167   0.07985   0.08947   0.09264   0.13686
     Eigenvalues ---    0.14509   0.15950   0.15998   0.16000   0.16109
     Eigenvalues ---    0.17023   0.21998   0.29770   0.33207   0.33497
     Eigenvalues ---    0.33865   0.34892   0.34900   0.35227   0.35412
     Eigenvalues ---    0.35419   0.36116   0.36587   0.38040   0.40514
     Eigenvalues ---    0.40736   0.46517   0.475061000.000001000.00000
     Eigenvalues --- 1000.000001000.000001000.000001000.000001000.00000
     Eigenvalues --- 1000.000001000.000001000.000001000.000001000.00000
     Eigenvalues --- 1000.000001000.000001000.000001000.000001000.00000
     Eigenvalues --- 1000.000001000.000001000.000001000.000001000.00000
     Eigenvalues --- 1000.000001000.000001000.000001000.000001000.00000
     Eigenvalues --- 1000.000001000.000001000.000001000.000001000.00000
     Eigenvalues --- 1000.000001000.000001000.000001000.000001000.00000
     Eigenvalues --- 1000.000001000.000001000.000001000.000001000.00000
     Eigenvalues --- 1000.000001000.000001000.000001000.000001000.00000
     Eigenvalues --- 1000.000001000.000001000.000001000.000001000.00000
     Eigenvalues --- 1000.000001000.000001000.000001000.00000
 RFO step:  Lambda=-1.60443096D-02 EMin= 8.18876395D-03
 Quartic linear search produced a step of  0.98672.
 Iteration  1 RMS(Cart)=  0.05375920 RMS(Int)=  0.02850799
 Iteration  2 RMS(Cart)=  0.02194399 RMS(Int)=  0.00973024
 Iteration  3 RMS(Cart)=  0.00101921 RMS(Int)=  0.00967233
 Iteration  4 RMS(Cart)=  0.00001957 RMS(Int)=  0.00967231
 Iteration  5 RMS(Cart)=  0.00000051 RMS(Int)=  0.00967231
 Iteration  1 RMS(Cart)=  0.00024663 RMS(Int)=  0.00005994
 Iteration  2 RMS(Cart)=  0.00003945 RMS(Int)=  0.00006409
 Iteration  3 RMS(Cart)=  0.00000797 RMS(Int)=  0.00006581
 Iteration  4 RMS(Cart)=  0.00000176 RMS(Int)=  0.00006621
 Iteration  5 RMS(Cart)=  0.00000040 RMS(Int)=  0.00006630
 Variable       Old X    -DE/DX   Delta X   Delta X   Delta X     New X
                                 (Linear)    (Quad)   (Total)
    R1        2.60491  -0.01640  -0.04343  -0.01714  -0.06077   2.54413
    R2        2.04675  -0.00236  -0.01151   0.00239  -0.00912   2.03764
    R3        2.75588   0.02990   0.12409  -0.02524   0.09923   2.85510
    R4        6.04712   0.00476   0.00000   0.00000   0.00000   6.04712
    R5        2.74787   0.01297   0.03587  -0.00487   0.03034   2.77821
    R6        2.04347  -0.00048  -0.00646   0.00581  -0.00065   2.04282
    R7        2.60490  -0.01646  -0.04362  -0.01720  -0.06105   2.54385
    R8        2.04346  -0.00047  -0.00645   0.00581  -0.00064   2.04282
    R9        2.04670  -0.00235  -0.01149   0.00242  -0.00907   2.03764
   R10        2.75577   0.02994   0.12397  -0.02491   0.09957   2.85535
   R11        6.04712   0.00528  -0.00000   0.00000  -0.00000   6.04712
   R12        2.06737   0.00563   0.04476  -0.02935   0.01541   2.08278
   R13        2.05132   0.00550   0.02892  -0.01193   0.01559   2.06691
   R14        5.50105  -0.00114   0.00444   0.08498   0.08941   5.59046
   R15        5.53190  -0.00410  -0.07144  -0.22007  -0.29775   5.23415
   R16        5.42477  -0.00020   0.01186   0.09883   0.10809   5.53285
   R17        5.42373  -0.00446  -0.07266  -0.21870  -0.29520   5.12853
   R18        2.06262  -0.00398  -0.02461   0.00973  -0.01487   2.04774
   R19        2.04850   0.00294   0.01957  -0.01391   0.01632   2.06483
   R20        2.58853  -0.02525  -0.11426   0.01160  -0.09755   2.49098
   R21        2.05474   0.00105   0.00984  -0.01118   0.01045   2.06519
   R22        2.06117  -0.00341  -0.02104   0.00844  -0.01260   2.04857
    A1        2.24306  -0.00296  -0.02720  -0.00890  -0.03622   2.20685
    A2        1.89044  -0.00046  -0.00178   0.02653   0.02483   1.91528
    A3        2.14963   0.00341   0.02893  -0.01772   0.01102   2.16064
    A4        1.89503   0.00569   0.02393  -0.01354   0.00945   1.90448
    A5        2.19698  -0.00168  -0.00970   0.01621   0.00695   2.20393
    A6        2.19117  -0.00400  -0.01425  -0.00270  -0.01654   2.17463
    A7        1.89503   0.00566   0.02396  -0.01378   0.00920   1.90423
    A8        2.19117  -0.00400  -0.01425  -0.00267  -0.01649   2.17468
    A9        2.19698  -0.00167  -0.00972   0.01642   0.00715   2.20412
   A10        2.24321  -0.00298  -0.02731  -0.00898  -0.03638   2.20683
   A11        1.89048  -0.00043  -0.00168   0.02662   0.02501   1.91549
   A12        2.14944   0.00340   0.02893  -0.01772   0.01100   2.16045
   A13        1.85355  -0.01047  -0.04469  -0.02609  -0.06986   1.78369
   A14        1.93974   0.00317   0.02585   0.00525   0.03198   1.97172
   A15        1.92351   0.00415   0.00978  -0.00248   0.00500   1.92851
   A16        1.94136   0.00332   0.02738   0.00486   0.03221   1.97357
   A17        1.91975   0.00378   0.00612  -0.00315   0.00275   1.92251
   A18        1.88628  -0.00376  -0.02403   0.02076  -0.00310   1.88318
   A19        1.88478  -0.00264  -0.01400  -0.00998  -0.02085   1.86393
   A20        2.14794  -0.00397  -0.02345  -0.03357  -0.05613   2.09181
   A21        1.90004  -0.00264  -0.01352  -0.01059  -0.02122   1.87882
   A22        2.19183  -0.00422  -0.02325  -0.03414  -0.05803   2.13380
   A23        0.75462  -0.00195  -0.00264   0.01745   0.00578   0.76040
   A24        0.75376  -0.00199  -0.00269   0.01667   0.00611   0.75987
   A25        0.87586   0.00179   0.02396   0.06157   0.06914   0.94500
   A26        2.42558  -0.01020  -0.05688  -0.06997  -0.12379   2.30179
   A27        2.03344  -0.00248   0.00028   0.01555  -0.02902   2.00442
   A28        2.05811   0.00144   0.01626   0.06215   0.07726   2.13538
   A29        2.10202   0.00745   0.04154   0.03010   0.03898   2.14100
   A30        2.42282  -0.01098  -0.06068  -0.07658  -0.13228   2.29054
   A31        2.09051   0.00861   0.04767   0.03773   0.04861   2.13912
   A32        2.05535   0.00188   0.01879   0.06633   0.07940   2.13475
   A33        2.02697  -0.00264   0.00231   0.02361  -0.02177   2.00520
    D1       -3.13909  -0.00029   0.00235  -0.00270   0.00100  -3.13808
    D2       -0.00309  -0.00036  -0.00314  -0.00860  -0.01129  -0.01438
    D3        0.01317   0.00018   0.01299   0.00662   0.02069   0.03386
    D4       -3.13402   0.00012   0.00749   0.00071   0.00840  -3.12562
    D5       -0.02053  -0.00009  -0.02032  -0.01034  -0.03025  -0.05078
    D6        2.09321  -0.00079   0.00054  -0.01778  -0.01790   2.07531
    D7       -2.09925  -0.00073  -0.00666   0.00996   0.00296  -2.09629
    D8        3.13103   0.00040  -0.01039  -0.00168  -0.01084   3.12020
    D9       -1.03841  -0.00030   0.01047  -0.00912   0.00152  -1.03689
   D10        1.05231  -0.00024   0.00327   0.01862   0.02237   1.07468
   D11       -0.00028  -0.00002  -0.00020   0.00017   0.00008  -0.00021
   D12        3.13620  -0.00005  -0.00535  -0.00663  -0.01274   3.12346
   D13       -3.13630   0.00003   0.00527   0.00598   0.01202  -3.12428
   D14        0.00018   0.00000   0.00012  -0.00082  -0.00079  -0.00061
   D15        3.14007   0.00036  -0.00164   0.00175  -0.00167   3.13840
   D16       -0.01272  -0.00015  -0.01267  -0.00688  -0.02082  -0.03354
   D17        0.00360   0.00040   0.00353   0.00865   0.01150   0.01510
   D18        3.13400  -0.00011  -0.00751   0.00002  -0.00764   3.12635
   D19        0.02035   0.00007   0.02020   0.01044   0.03031   0.05066
   D20       -2.09235   0.00089   0.00033   0.01766   0.01818  -2.07417
   D21        2.10154   0.00099   0.00894  -0.00933  -0.00106   2.10048
   D22       -3.13171  -0.00045   0.00989   0.00243   0.01140  -3.12030
   D23        1.03878   0.00036  -0.00999   0.00965  -0.00072   1.03806
   D24       -1.05052   0.00046  -0.00137  -0.01734  -0.01996  -1.07048
   D25        0.76046  -0.00128  -0.00854  -0.01122  -0.02095   0.73951
   D26        0.46514  -0.00340  -0.02715  -0.03847  -0.05574   0.40940
   D27        1.26478  -0.00670  -0.03468  -0.01926  -0.05234   1.21244
   D28        1.54245  -0.00445  -0.01564   0.01270  -0.01384   1.52861
   D29       -1.27745   0.00677   0.03650   0.02394   0.05912  -1.21834
   D30       -1.57277   0.00465   0.01789  -0.00331   0.02433  -1.54844
   D31       -0.77313   0.00135   0.01036   0.01590   0.02773  -0.74540
   D32       -0.49546   0.00360   0.02940   0.04786   0.06623  -0.42923
   D33        2.88325   0.00277   0.01416   0.00686   0.01970   2.90295
   D34        2.58794   0.00064  -0.00446  -0.02039  -0.01509   2.57284
   D35       -2.89561  -0.00265  -0.01199  -0.00118  -0.01169  -2.90730
   D36       -2.61794  -0.00040   0.00706   0.03078   0.02680  -2.59114
   D37       -0.32588  -0.00378  -0.03283  -0.09343  -0.11044  -0.43632
   D38       -2.47635  -0.00087  -0.01375  -0.04769  -0.04469  -2.52104
   D39        0.44972   0.00336   0.02881   0.07495   0.08790   0.53762
   D40        2.51946   0.00060   0.00863   0.03316   0.02625   2.54571
   D41       -2.66177  -0.01519  -0.12111  -0.27176  -0.39248  -3.05425
   D42       -0.02605   0.00072   0.00354   0.00651   0.01093  -0.01513
   D43        0.02248  -0.00048  -0.00276  -0.00870  -0.01325   0.00923
   D44        2.65820   0.01543   0.12190   0.26958   0.39016   3.04836
         Item               Value     Threshold  Converged?
 Maximum Force            0.029832     0.000450     NO 
 RMS     Force            0.006964     0.000300     NO 
 Maximum Displacement     0.344342     0.001800     NO 
 RMS     Displacement     0.071485     0.001200     NO 
 Predicted change in Energy=-1.885496D-02
 GradGradGradGradGradGradGradGradGradGradGradGradGradGradGradGradGradGrad

                          Input orientation:                          
 ---------------------------------------------------------------------
 Center     Atomic      Atomic             Coordinates (Angstroms)
 Number     Number       Type             X           Y           Z
 ---------------------------------------------------------------------
      1          6           0        1.942290   -1.370922    0.085544
      2          6           0        3.287597   -1.324677    0.062589
      3          6           0        3.721301    0.080043    0.069545
      4          6           0        2.636073    0.876079    0.096406
      5          1           0        1.331934   -2.259804    0.090038
      6          1           0        3.956773   -2.173658    0.057756
      7          1           0        4.752608    0.404064    0.071062
      8          1           0        2.632781    1.954257    0.110307
      9          6           0        1.383040    0.032414    0.061624
     10          1           0        0.753781    0.229689   -0.821476
     11          1           0        0.778318    0.218939    0.953717
     12          6           0        2.249286   -0.943727    3.242008
     13          1           0        2.979867   -1.741764    3.302165
     14          1           0        1.207617   -1.273579    3.247155
     15          6           0        2.592717    0.328900    3.248978
     16          1           0        1.856840    1.136619    3.268869
     17          1           0        3.624993    0.650088    3.329133
 ---------------------------------------------------------------------
                    Distance matrix (angstroms):
                    1          2          3          4          5
     1  C    0.000000
     2  C    1.346298   0.000000
     3  C    2.295743   1.470166   0.000000
     4  C    2.351694   2.295421   1.346148   0.000000
     5  H    1.078270   2.167910   3.344306   3.396261   0.000000
     6  H    2.168710   1.081012   2.266000   3.323648   2.626451
     7  H    3.323955   2.266027   1.081012   2.168678   4.335616
     8  H    3.396204   3.344020   2.167767   1.078272   4.410320
     9  C    1.510855   2.338597   2.338759   1.510984   2.292964
    10  H    2.190249   3.101266   3.102014   2.191655   2.713428
    11  H    2.153186   3.077880   3.076070   2.148970   2.682648
    12  C    3.200000   3.366291   3.644099   3.654601   3.536737
    13  H    3.400109   3.280779   3.783984   4.153094   3.647165
    14  H    3.247307   3.803996   4.271780   4.072928   3.309907
    15  C    3.649625   3.656536   3.382961   3.200000   4.274327
    16  H    4.053223   4.287805   3.850745   3.277134   4.681472
    17  H    4.175744   3.831950   3.310459   3.388150   4.921111
                    6          7          8          9         10
     6  H    0.000000
     7  H    2.697810   0.000000
     8  H    4.335365   2.626462   0.000000
     9  C    3.389819   3.390015   2.292967   0.000000
    10  H    4.099791   4.100933   2.715326   1.102157   0.000000
    11  H    4.077970   4.075333   2.676136   1.093760   1.775396
    12  C    3.816765   4.258880   4.284032   3.437742   4.486128
    13  H    3.415709   4.264647   4.895814   4.024757   5.083945
    14  H    4.305841   5.046684   4.721211   3.447318   4.361140
    15  C    4.278708   3.843167   3.534777   3.422053   4.467676
    16  H    5.067435   4.375852   3.353674   3.424934   4.332457
    17  H    4.334227   3.456454   3.611950   4.010547   5.064401
                   11         12         13         14         15
    11  H    0.000000
    12  C    2.958346   0.000000
    13  H    3.769135   1.083619   0.000000
    14  H    2.769795   1.092659   1.833874   0.000000
    15  C    2.927859   1.318171   2.107217   2.118123   0.000000
    16  H    2.713903   2.117209   3.089884   2.496200   1.092849
    17  H    3.732566   2.107227   2.477472   3.090456   1.084057
                   16         17
    16  H    0.000000
    17  H    1.834860   0.000000
 Stoichiometry    C7H10
 Framework group  C1[X(C7H10)]
 Deg. of freedom    45
 Full point group                 C1      NOp   1
 Largest Abelian subgroup         C1      NOp   1
 Largest concise Abelian subgroup C1      NOp   1
                         Standard orientation:                         
 ---------------------------------------------------------------------
 Center     Atomic      Atomic             Coordinates (Angstroms)
 Number     Number       Type             X           Y           Z
 ---------------------------------------------------------------------
      1          6           0       -0.944175    1.164167   -0.342101
      2          6           0       -1.052096    0.769908    0.940642
      3          6           0       -1.053765   -0.699277    0.994312
      4          6           0       -0.947112   -1.185957   -0.256240
      5          1           0       -0.912858    2.181126   -0.699148
      6          1           0       -1.111000    1.415779    1.805494
      7          1           0       -1.113521   -1.280231    1.903987
      8          1           0       -0.918449   -2.226261   -0.538405
      9          6           0       -0.913464   -0.045474   -1.246815
     10          1           0       -1.751966   -0.069317   -1.961725
     11          1           0        0.017757   -0.071518   -1.819930
     12          6           0        2.191832    0.660832    0.047922
     13          1           0        2.194561    1.241323    0.962937
     14          1           0        2.258819    1.250087   -0.869789
     15          6           0        2.194137   -0.657336    0.048904
     16          1           0        2.271755   -1.246079   -0.868525
     17          1           0        2.212753   -1.236081    0.965358
 ---------------------------------------------------------------------
 Rotational constants (GHZ):           3.6626568           1.9251320           1.8238882
 Standard basis: 3-21G (6D, 7F)
 There are    83 symmetry adapted cartesian basis functions of A   symmetry.
 There are    83 symmetry adapted basis functions of A   symmetry.
    83 basis functions,   135 primitive gaussians,    83 cartesian basis functions
    26 alpha electrons       26 beta electrons
       nuclear repulsion energy       275.4261457473 Hartrees.
 NAtoms=   17 NActive=   17 NUniq=   17 SFac= 1.00D+00 NAtFMM=   60 NAOKFM=F Big=F
 Integral buffers will be    131072 words long.
 Raffenetti 2 integral format.
 Two-electron integral symmetry is turned on.
 One-electron integrals computed using PRISM.
 NBasis=    83 RedAO= T EigKep=  4.39D-03  NBF=    83
 NBsUse=    83 1.00D-06 EigRej= -1.00D+00 NBFU=    83
 Initial guess from the checkpoint file:  "C3.chk"
 B after Tr=    -0.000000    0.000000   -0.000000
         Rot=    0.999982   -0.001476   -0.005498   -0.001956 Ang=  -0.69 deg.
 ExpMin= 1.83D-01 ExpMax= 1.72D+02 ExpMxC= 1.72D+02 IAcc=3 IRadAn=         5 AccDes= 0.00D+00
 Harris functional with IExCor=  402 and IRadAn=       5 diagonalized for initial guess.
 HarFok:  IExCor=  402 AccDes= 0.00D+00 IRadAn=         5 IDoV= 1 UseB2=F ITyADJ=14
 ICtDFT=  3500011 ScaDFX=  1.000000  1.000000  1.000000  1.000000
 FoFCou: FMM=F IPFlag=           0 FMFlag=      100000 FMFlg1=           0
         NFxFlg=           0 DoJE=T BraDBF=F KetDBF=T FulRan=T
         wScrn=  0.000000 ICntrl=       500 IOpCl=  0 I1Cent=   200000004 NGrid=           0
         NMat0=    1 NMatS0=      1 NMatT0=    0 NMatD0=    1 NMtDS0=    0 NMtDT0=    0
 Petite list used in FoFCou.
 Keep R1 ints in memory in canonical form, NReq=7891734.
 Requested convergence on RMS density matrix=1.00D-08 within 128 cycles.
 Requested convergence on MAX density matrix=1.00D-06.
 Requested convergence on             energy=1.00D-06.
 No special actions if energy rises.
 Integral accuracy reduced to 1.0D-05 until final iterations.
 Initial convergence to 1.0D-05 achieved.  Increase integral accuracy.
 SCF Done:  E(RB3LYP) =  -271.195309405     A.U. after   14 cycles
            NFock= 14  Conv=0.22D-08     -V/T= 2.0088
 Calling FoFJK, ICntrl=      2127 FMM=F ISym2X=0 I1Cent= 0 IOpClX= 0 NMat=1 NMatS=1 NMatT=0.
 ***** Axes restored to original set *****
 -------------------------------------------------------------------
 Center     Atomic                   Forces (Hartrees/Bohr)
 Number     Number              X              Y              Z
 -------------------------------------------------------------------
      1        6          -0.004235270   -0.006858632   -0.005039084
      2        6           0.003926389   -0.003041906   -0.000337855
      3        6           0.004976750    0.000261896   -0.000359988
      4        6           0.000509364    0.008166408   -0.005381581
      5        1          -0.001640100   -0.001081953   -0.000284484
      6        1           0.000273794    0.000145380    0.000209840
      7        1           0.000135325   -0.000288670    0.000233606
      8        1          -0.000756371    0.001818516   -0.000228292
      9        6          -0.002609644    0.000977482    0.003551333
     10        1           0.002903270   -0.000799489    0.000999461
     11        1          -0.002591071    0.000430529    0.001856469
     12        6          -0.009163860   -0.015289659    0.006181700
     13        1           0.001660409   -0.000133369   -0.002321641
     14        1           0.003577451    0.002593202   -0.002016221
     15        6          -0.000172648    0.017714691    0.008290563
     16        1           0.001947193   -0.003926658   -0.002320131
     17        1           0.001259020   -0.000687768   -0.003033695
 -------------------------------------------------------------------
 Cartesian Forces:  Max     0.017714691 RMS     0.004625453

 GradGradGradGradGradGradGradGradGradGradGradGradGradGradGradGradGradGrad
 Berny optimization.
 Using GEDIIS/GDIIS optimizer.
 FormGI is forming the generalized inverse of G from B-inverse, IUseBI=4.
 Internal  Forces:  Max     0.012665256 RMS     0.002174775
 Search for a local minimum.
 Step number   3 out of a maximum of  102
 All quantities printed in internal units (Hartrees-Bohrs-Radians)
 Mixed Optimization -- RFO/linear search
 Update second derivatives using D2CorX and points    2    3
 DE= -1.75D-02 DEPred=-1.89D-02 R= 9.30D-01
 TightC=F SS=  1.41D+00  RLast= 8.13D-01 DXNew= 8.4853D-01 2.4382D+00
 Trust test= 9.30D-01 RLast= 8.13D-01 DXMaxT set to 8.49D-01
 ITU=  1  1  0
 Use linear search instead of GDIIS.
     Eigenvalues ---    0.00850   0.01283   0.01457   0.01797   0.01915
     Eigenvalues ---    0.01928   0.02139   0.02144   0.02181   0.02345
     Eigenvalues ---    0.02553   0.03863   0.04113   0.04522   0.04838
     Eigenvalues ---    0.07163   0.07945   0.09284   0.09984   0.13928
     Eigenvalues ---    0.14021   0.15930   0.15986   0.15996   0.16110
     Eigenvalues ---    0.17338   0.21986   0.30196   0.33210   0.33496
     Eigenvalues ---    0.33548   0.34421   0.34899   0.34932   0.35419
     Eigenvalues ---    0.35445   0.36085   0.37092   0.38405   0.39813
     Eigenvalues ---    0.40520   0.46482   0.471101000.000001000.00000
     Eigenvalues --- 1000.000001000.000001000.000001000.000001000.00000
     Eigenvalues --- 1000.000001000.000001000.000001000.000001000.00000
     Eigenvalues --- 1000.000001000.000001000.000001000.000001000.00000
     Eigenvalues --- 1000.000001000.000001000.000001000.000001000.00000
     Eigenvalues --- 1000.000001000.000001000.000001000.000001000.00000
     Eigenvalues --- 1000.000001000.000001000.000001000.000001000.00000
     Eigenvalues --- 1000.000001000.000001000.000001000.000001000.00000
     Eigenvalues --- 1000.000001000.000001000.000001000.000001000.00000
     Eigenvalues --- 1000.000001000.000001000.000001000.000001000.00000
     Eigenvalues --- 1000.000001000.000001000.000001000.000001000.00000
     Eigenvalues --- 1000.000001000.000001000.000001000.00000
 RFO step:  Lambda=-2.02541264D-03 EMin= 8.49850132D-03
 Quartic linear search produced a step of  0.02661.
 Iteration  1 RMS(Cart)=  0.01575513 RMS(Int)=  0.00052132
 Iteration  2 RMS(Cart)=  0.00027973 RMS(Int)=  0.00042427
 Iteration  3 RMS(Cart)=  0.00000010 RMS(Int)=  0.00042427
 Iteration  1 RMS(Cart)=  0.00001331 RMS(Int)=  0.00000317
 Iteration  2 RMS(Cart)=  0.00000205 RMS(Int)=  0.00000338
 Iteration  3 RMS(Cart)=  0.00000040 RMS(Int)=  0.00000347
 Variable       Old X    -DE/DX   Delta X   Delta X   Delta X     New X
                                 (Linear)    (Quad)   (Total)
    R1        2.54413   0.00557  -0.00162   0.01298   0.01135   2.55548
    R2        2.03764   0.00182  -0.00024   0.00530   0.00505   2.04269
    R3        2.85510   0.00566   0.00264   0.01162   0.01430   2.86940
    R4        6.04712   0.00275   0.00000   0.00000   0.00000   6.04712
    R5        2.77821   0.00450   0.00081   0.01262   0.01337   2.79158
    R6        2.04282   0.00006  -0.00002   0.00011   0.00010   2.04291
    R7        2.54385   0.00562  -0.00162   0.01311   0.01146   2.55532
    R8        2.04282   0.00004  -0.00002   0.00008   0.00006   2.04288
    R9        2.03764   0.00182  -0.00024   0.00529   0.00505   2.04269
   R10        2.85535   0.00571   0.00265   0.01173   0.01442   2.86977
   R11        6.04712   0.00307  -0.00000   0.00000   0.00000   6.04712
   R12        2.08278  -0.00260   0.00041  -0.00690  -0.00649   2.07628
   R13        2.06691   0.00293   0.00041   0.00427   0.00460   2.07151
   R14        5.59046  -0.00007   0.00238  -0.03384  -0.03158   5.55889
   R15        5.23415  -0.00034  -0.00792  -0.08534  -0.09346   5.14069
   R16        5.53285  -0.00016   0.00288  -0.02267  -0.01989   5.51296
   R17        5.12853  -0.00031  -0.00786  -0.07687  -0.08482   5.04371
   R18        2.04774   0.00109  -0.00040   0.00325   0.00286   2.05060
   R19        2.06483  -0.00428   0.00043  -0.01240  -0.01161   2.05322
   R20        2.49098   0.01267  -0.00260   0.03440   0.03204   2.52302
   R21        2.06519  -0.00436   0.00028  -0.01290  -0.01218   2.05301
   R22        2.04857   0.00077  -0.00034   0.00226   0.00193   2.05050
    A1        2.20685   0.00133  -0.00096   0.00882   0.00784   2.21468
    A2        1.91528  -0.00117   0.00066  -0.00844  -0.00775   1.90753
    A3        2.16064  -0.00015   0.00029  -0.00035  -0.00007   2.16057
    A4        1.90448   0.00060   0.00025   0.00348   0.00367   1.90815
    A5        2.20393   0.00001   0.00018   0.00017   0.00038   2.20431
    A6        2.17463  -0.00060  -0.00044  -0.00361  -0.00402   2.17061
    A7        1.90423   0.00061   0.00024   0.00354   0.00373   1.90796
    A8        2.17468  -0.00061  -0.00044  -0.00369  -0.00410   2.17058
    A9        2.20412   0.00001   0.00019   0.00017   0.00039   2.20451
   A10        2.20683   0.00136  -0.00097   0.00898   0.00800   2.21483
   A11        1.91549  -0.00121   0.00067  -0.00856  -0.00787   1.90762
   A12        2.16045  -0.00014   0.00029  -0.00036  -0.00009   2.16036
   A13        1.78369   0.00124  -0.00186   0.01108   0.00910   1.79279
   A14        1.97172  -0.00131   0.00085  -0.01636  -0.01548   1.95625
   A15        1.92851   0.00056   0.00013   0.00995   0.00985   1.93836
   A16        1.97357  -0.00135   0.00086  -0.01699  -0.01615   1.95742
   A17        1.92251   0.00062   0.00007   0.01078   0.01072   1.93323
   A18        1.88318   0.00032  -0.00008   0.00263   0.00268   1.88586
   A19        1.86393  -0.00029  -0.00055  -0.00605  -0.00644   1.85749
   A20        2.09181  -0.00029  -0.00149  -0.00835  -0.00984   2.08197
   A21        1.87882  -0.00023  -0.00056  -0.00612  -0.00653   1.87229
   A22        2.13380  -0.00039  -0.00154  -0.01168  -0.01336   2.12043
   A23        0.76040   0.00115   0.00015   0.01022   0.01008   0.77048
   A24        0.75987   0.00116   0.00016   0.00988   0.00979   0.76966
   A25        0.94500   0.00031   0.00184   0.01593   0.01721   0.96221
   A26        2.30179  -0.00187  -0.00329  -0.02178  -0.02498   2.27681
   A27        2.00442   0.00126  -0.00077   0.01299   0.01045   2.01487
   A28        2.13538   0.00088   0.00206  -0.00289  -0.00123   2.13414
   A29        2.14100  -0.00200   0.00104  -0.00658  -0.00687   2.13413
   A30        2.29054  -0.00213  -0.00352  -0.02677  -0.03022   2.26032
   A31        2.13912  -0.00195   0.00129  -0.00560  -0.00619   2.13293
   A32        2.13475   0.00107   0.00211  -0.00202  -0.00104   2.13370
   A33        2.00520   0.00112  -0.00058   0.01410   0.01131   2.01651
    D1       -3.13808  -0.00061   0.00003  -0.01050  -0.01043   3.13467
    D2       -0.01438  -0.00029  -0.00030  -0.00827  -0.00856  -0.02294
    D3        0.03386  -0.00070   0.00055  -0.01169  -0.01109   0.02277
    D4       -3.12562  -0.00038   0.00022  -0.00946  -0.00922  -3.13484
[...]
 ! A28   A(13,12,15)           121.8096         -DE/DX =    0.0                 !
 ! A29   A(14,12,15)           121.9101         -DE/DX =    0.0                 !
 ! A30   A(11,15,17)           111.0961         -DE/DX =    0.0                 !
 ! A31   A(12,15,16)           121.9096         -DE/DX =    0.0                 !
 ! A32   A(12,15,17)           121.8183         -DE/DX =    0.0                 !
 ! A33   A(16,15,17)           116.272          -DE/DX =    0.0                 !
 ! D1    D(5,1,2,3)            179.5492         -DE/DX =   -0.0001              !
 ! D2    D(5,1,2,6)             -0.949          -DE/DX =    0.0                 !
 ! D3    D(9,1,2,3)              1.8959         -DE/DX =   -0.0001              !
 ! D4    D(9,1,2,6)           -178.6023         -DE/DX =    0.0                 !
 ! D5    D(2,1,9,4)             -2.8657         -DE/DX =    0.0001              !
 ! D6    D(2,1,9,10)           115.6069         -DE/DX =    0.0                 !
 ! D7    D(2,1,9,11)          -123.0415         -DE/DX =   -0.0002              !
 ! D8    D(5,1,9,4)            179.3801         -DE/DX =    0.0001              !
 ! D9    D(5,1,9,10)           -62.1472         -DE/DX =    0.0                 !
 ! D10   D(5,1,9,11)            59.2044         -DE/DX =   -0.0002              !
 ! D11   D(1,2,3,4)              0.0029         -DE/DX =    0.0                 !
 ! D12   D(1,2,3,7)            179.5204         -DE/DX =    0.0001              !
 ! D13   D(6,2,3,4)           -179.5129         -DE/DX =   -0.0001              !
 ! D14   D(6,2,3,7)              0.0046         -DE/DX =    0.0                 !
 ! D15   D(2,3,4,8)           -179.5408         -DE/DX =    0.0001              !
 ! D16   D(2,3,4,9)             -1.9004         -DE/DX =    0.0001              !
 ! D17   D(7,3,4,8)              0.9556         -DE/DX =    0.0                 !
 ! D18   D(7,3,4,9)            178.596          -DE/DX =    0.0                 !
 ! D19   D(3,4,9,1)              2.8675         -DE/DX =   -0.0001              !
 ! D20   D(3,4,9,10)          -115.6044         -DE/DX =    0.0                 !
 ! D21   D(3,4,9,11)           123.0367         -DE/DX =    0.0002              !
 ! D22   D(8,4,9,1)           -179.3908         -DE/DX =   -0.0001              !
 ! D23   D(8,4,9,10)            62.1372         -DE/DX =    0.0                 !
 ! D24   D(8,4,9,11)           -59.2216         -DE/DX =    0.0002              !
 ! D25   D(1,9,11,12)           42.929          -DE/DX =    0.0001              !
 ! D26   D(1,9,11,14)           26.2947         -DE/DX =   -0.0001              !
 ! D27   D(1,9,11,15)           71.6248         -DE/DX =    0.0001              !
 ! D28   D(1,9,11,16)           88.2871         -DE/DX =    0.0002              !
 ! D29   D(4,9,11,12)          -71.6556         -DE/DX =   -0.0001              !
 ! D30   D(4,9,11,14)          -88.2899         -DE/DX =   -0.0002              !
 ! D31   D(4,9,11,15)          -42.9598         -DE/DX =   -0.0001              !
 ! D32   D(4,9,11,16)          -26.2974         -DE/DX =    0.0001              !
 ! D33   D(10,9,11,12)         165.633          -DE/DX =    0.0                 !
 ! D34   D(10,9,11,14)         148.9987         -DE/DX =   -0.0001              !
 ! D35   D(10,9,11,15)        -165.6712         -DE/DX =    0.0                 !
 ! D36   D(10,9,11,16)        -149.0089         -DE/DX =    0.0001              !
 ! D37   D(9,11,12,13)         -24.6103         -DE/DX =    0.0001              !
 ! D38   D(16,11,12,13)       -145.4993         -DE/DX =    0.0                 !
 ! D39   D(9,11,15,17)          24.488          -DE/DX =   -0.0001              !
 ! D40   D(14,11,15,17)        145.5037         -DE/DX =    0.0                 !
 ! D41   D(13,12,15,16)       -179.9014         -DE/DX =    0.0                 !
 ! D42   D(13,12,15,17)          0.0053         -DE/DX =    0.0                 !
 ! D43   D(14,12,15,16)          0.002          -DE/DX =    0.0                 !
 ! D44   D(14,12,15,17)        179.9088         -DE/DX =    0.0                 !
 --------------------------------------------------------------------------------
 GradGradGradGradGradGradGradGradGradGradGradGradGradGradGradGradGradGrad

                          Input orientation:                          
 ---------------------------------------------------------------------
 Center     Atomic      Atomic             Coordinates (Angstroms)
 Number     Number       Type             X           Y           Z
 ---------------------------------------------------------------------
      1          6           0        2.000187   -1.400387    0.104784
      2          6           0        3.347868   -1.336944    0.025217
      3          6           0        3.771825    0.078608    0.033377
      4          6           0        2.680635    0.871557    0.117945
      5          1           0        1.389178   -2.291516    0.113554
      6          1           0        4.029114   -2.174991   -0.028122
      7          1           0        4.801736    0.404752   -0.013323
      8          1           0        2.660082    1.951697    0.137963
      9          6           0        1.430889    0.007947    0.124999
     10          1           0        0.818575    0.196514   -0.769440
     11          1           0        0.815269    0.187085    1.012139
     12          6           0        2.132481   -0.915959    3.265137
     13          1           0        2.804968   -1.712848    2.971901
     14          1           0        1.128761   -1.215442    3.554334
     15          6           0        2.515890    0.358539    3.272255
     16          1           0        1.843112    1.159086    3.567624
     17          1           0        3.517246    0.655264    2.985076
 ---------------------------------------------------------------------
                    Distance matrix (angstroms):
                    1          2          3          4          5
     1  C    0.000000
     2  C    1.351517   0.000000
     3  C    2.308945   1.477699   0.000000
     4  C    2.371690   2.308956   1.351523   0.000000
     5  H    1.080518   2.180706   3.361685   3.416565   0.000000
     6  H    2.175826   1.081325   2.269073   3.334845   2.646301
     7  H    3.334839   2.269079   1.081327   2.175824   4.351036
     8  H    3.416582   3.361684   2.180681   1.080520   4.429520
     9  C    1.519182   2.343821   2.343793   1.519124   2.299870
    10  H    2.170385   3.062727   3.062695   2.170346   2.701029
    11  H    2.178850   3.116205   3.116241   2.178916   2.698201
    12  C    3.200000   3.485896   3.757777   3.660670   3.518115
    13  H    2.994271   3.019766   3.574780   3.852230   3.241831
    14  H    3.562721   4.170595   4.588844   4.309600   3.614516
    15  C    3.659596   3.756341   3.485120   3.200000   4.274303
    16  H    4.308925   4.587276   4.168725   3.561517   4.903399
    17  H    3.850097   3.571882   3.018256   2.994519   4.632259
                    6          7          8          9         10
     6  H    0.000000
     7  H    2.692998   0.000000
     8  H    4.351021   2.646244   0.000000
     9  C    3.396975   3.396940   2.299837   0.000000
    10  H    4.059698   4.059637   2.700962   1.100231   0.000000
    11  H    4.121934   4.121998   2.698402   1.094575   1.781607
    12  C    4.003490   4.429165   4.275632   3.347581   4.386543
    13  H    3.272957   4.169277   4.634769   3.599177   4.646402
    14  H    4.708161   5.370657   4.903805   3.653532   4.559041
    15  C    4.427314   4.002780   3.518910   3.347441   4.386619
    16  H    5.368805   4.705918   3.613620   3.653316   4.559205
    17  H    4.165539   3.271555   3.243689   3.598881   4.646468
                   11         12         13         14         15
    11  H    0.000000
    12  C    2.833329   0.000000
    13  H    3.377767   1.083170   0.000000
    14  H    2.920294   1.086637   1.842909   0.000000
    15  C    2.833661   1.330939   2.112918   2.116864   0.000000
    16  H    2.920917   2.116848   3.086755   2.479689   1.086623
    17  H    3.378217   2.112995   2.472947   3.086820   1.083157
                   16         17
    16  H    0.000000
    17  H    1.842803   0.000000
 Stoichiometry    C7H10
 Framework group  C1[X(C7H10)]
 Deg. of freedom    45
 Full point group                 C1      NOp   1
 Largest Abelian subgroup         C1      NOp   1
 Largest concise Abelian subgroup C1      NOp   1
                         Standard orientation:                         
 ---------------------------------------------------------------------
 Center     Atomic      Atomic             Coordinates (Angstroms)
 Number     Number       Type             X           Y           Z
 ---------------------------------------------------------------------
      1          6           0       -0.904241    1.186277   -0.345682
      2          6           0       -1.198577    0.738530    0.895079
      3          6           0       -1.199321   -0.739169    0.894001
      4          6           0       -0.905372   -1.185412   -0.347399
      5          1           0       -0.834251    2.215380   -0.667501
      6          1           0       -1.397161    1.345638    1.767575
      7          1           0       -1.398586   -1.347359    1.765590
      8          1           0       -0.836539   -2.214138   -0.670679
      9          6           0       -0.732308    0.000989   -1.280265
     10          1           0       -1.506788    0.001926   -2.061729
     11          1           0        0.249716    0.000968   -1.763714
     12          6           0        2.210458    0.664871    0.170835
     13          1           0        1.778536    1.236551    0.983168
     14          1           0        2.645669    1.238507   -0.642990
     15          6           0        2.209287   -0.666068    0.171429
     16          1           0        2.643514   -1.241181   -0.641861
     17          1           0        1.776332   -1.236395    0.984145
 ---------------------------------------------------------------------
 Rotational constants (GHZ):           3.6879105           1.9021306           1.7854342

 **********************************************************************

            Population analysis using the SCF Density.

 **********************************************************************

 Orbital symmetries:
       Occupied  (A) (A) (A) (A) (A) (A) (A) (A) (A) (A) (A) (A)
                 (A) (A) (A) (A) (A) (A) (A) (A) (A) (A) (A) (A)
                 (A) (A)
       Virtual   (A) (A) (A) (A) (A) (A) (A) (A) (A) (A) (A) (A)
                 (A) (A) (A) (A) (A) (A) (A) (A) (A) (A) (A) (A)
                 (A) (A) (A) (A) (A) (A) (A) (A) (A) (A) (A) (A)
                 (A) (A) (A) (A) (A) (A) (A) (A) (A) (A) (A) (A)
                 (A) (A) (A) (A) (A) (A) (A) (A) (A)
 The electronic state is 1-A.
 Alpha  occ. eigenvalues --  -10.12121 -10.11833 -10.11795 -10.11741 -10.11643
 Alpha  occ. eigenvalues --  -10.10807 -10.10712  -0.85206  -0.74912  -0.70258
 Alpha  occ. eigenvalues --   -0.69747  -0.56691  -0.54829  -0.52623  -0.51248
 Alpha  occ. eigenvalues --   -0.45976  -0.43265  -0.41245  -0.40080  -0.37379
 Alpha  occ. eigenvalues --   -0.35583  -0.35422  -0.34287  -0.29556  -0.25582
 Alpha  occ. eigenvalues --   -0.21352
 Alpha virt. eigenvalues --   -0.00712   0.03281   0.09507   0.13322   0.15169
 Alpha virt. eigenvalues --    0.16515   0.17862   0.18418   0.19382   0.19519
 Alpha virt. eigenvalues --    0.19671   0.21243   0.21378   0.25943   0.28588
 Alpha virt. eigenvalues --    0.37686   0.38719   0.40510   0.47534   0.64281
 Alpha virt. eigenvalues --    0.66498   0.70785   0.71084   0.72082   0.72835
 Alpha virt. eigenvalues --    0.74483   0.76614   0.79468   0.81190   0.82998
 Alpha virt. eigenvalues --    0.83215   0.84793   0.85260   0.93291   0.94542
 Alpha virt. eigenvalues --    0.95928   0.99596   1.02594   1.02905   1.04975
 Alpha virt. eigenvalues --    1.05799   1.06143   1.08482   1.08534   1.11558
 Alpha virt. eigenvalues --    1.12821   1.28961   1.36216   1.37359   1.39758
 Alpha virt. eigenvalues --    1.41355   1.47912   1.63115   1.84489   1.84902
 Alpha virt. eigenvalues --    2.06465   2.16111
          Condensed to atoms (all electrons):
               1          2          3          4          5          6
     1  C    5.227131   0.528376  -0.110952  -0.111936   0.390070  -0.037144
     2  C    0.528376   5.172991   0.391648  -0.110951  -0.035610   0.386803
     3  C   -0.110952   0.391648   5.173017   0.528370   0.003927  -0.032269
     4  C   -0.111936  -0.110951   0.528370   5.227151   0.002810   0.003498
     5  H    0.390070  -0.035610   0.003927   0.002810   0.495931  -0.002078
     6  H   -0.037144   0.386803  -0.032269   0.003498  -0.002078   0.502078
     7  H    0.003499  -0.032268   0.386800  -0.037144  -0.000051  -0.000773
     8  H    0.002810   0.003927  -0.035612   0.390071  -0.000032  -0.000051
     9  C    0.335483  -0.123518  -0.123531   0.335486  -0.032323   0.004555
    10  H   -0.035662   0.002080   0.002079  -0.035667  -0.000078  -0.000094
    11  H   -0.034081   0.002442   0.002442  -0.034074  -0.000303  -0.000080
    12  C    0.000625  -0.001314  -0.000638  -0.001136  -0.000151   0.000002
    13  H    0.002019   0.002264  -0.000084  -0.000095   0.000028   0.000113
    14  H    0.000260   0.000029   0.000005  -0.000002   0.000025   0.000000
    15  C   -0.001138  -0.000642  -0.001313   0.000631  -0.000013  -0.000006
    16  H   -0.000001   0.000005   0.000029   0.000260   0.000000  -0.000000
    17  H   -0.000095  -0.000083   0.002269   0.002010  -0.000001  -0.000001
               7          8          9         10         11         12
     1  C    0.003499   0.002810   0.335483  -0.035662  -0.034081   0.000625
     2  C   -0.032268   0.003927  -0.123518   0.002080   0.002442  -0.001314
     3  C    0.386800  -0.035612  -0.123531   0.002079   0.002442  -0.000638
     4  C   -0.037144   0.390071   0.335486  -0.035667  -0.034074  -0.001136
     5  H   -0.000051  -0.000032  -0.032323  -0.000078  -0.000303  -0.000151
     6  H   -0.000773  -0.000051   0.004555  -0.000094  -0.000080   0.000002
     7  H    0.502076  -0.002078   0.004555  -0.000094  -0.000080  -0.000006
     8  H   -0.002078   0.495933  -0.032323  -0.000078  -0.000303  -0.000013
     9  C    0.004555  -0.032323   5.405891   0.345405   0.346570  -0.004533
    10  H   -0.000094  -0.000078   0.345405   0.524153  -0.022813   0.000149
    11  H   -0.000080  -0.000303   0.346570  -0.022813   0.501421   0.004056
    12  C   -0.000006  -0.000013  -0.004533   0.000149   0.004056   5.145484
    13  H   -0.000001  -0.000001  -0.000038   0.000004  -0.000109   0.380105
    14  H   -0.000000   0.000000  -0.000070   0.000002   0.000259   0.379940
    15  C    0.000002  -0.000151  -0.004535   0.000149   0.004048   0.560922
    16  H    0.000000   0.000025  -0.000071   0.000002   0.000258  -0.048528
    17  H    0.000113   0.000028  -0.000038   0.000004  -0.000109  -0.044268
              13         14         15         16         17
     1  C    0.002019   0.000260  -0.001138  -0.000001  -0.000095
     2  C    0.002264   0.000029  -0.000642   0.000005  -0.000083
     3  C   -0.000084   0.000005  -0.001313   0.000029   0.002269
     4  C   -0.000095  -0.000002   0.000631   0.000260   0.002010
     5  H    0.000028   0.000025  -0.000013   0.000000  -0.000001
     6  H    0.000113   0.000000  -0.000006  -0.000000  -0.000001
     7  H   -0.000001  -0.000000   0.000002   0.000000   0.000113
     8  H   -0.000001   0.000000  -0.000151   0.000025   0.000028
     9  C   -0.000038  -0.000070  -0.004535  -0.000071  -0.000038
    10  H    0.000004   0.000002   0.000149   0.000002   0.000004
    11  H   -0.000109   0.000259   0.004048   0.000258  -0.000109
    12  C    0.380105   0.379940   0.560922  -0.048528  -0.044268
    13  H    0.502074  -0.031316  -0.044280   0.003283  -0.005165
    14  H   -0.031316   0.526728  -0.048524  -0.005245   0.003282
    15  C   -0.044280  -0.048524   5.145428   0.379938   0.380109
    16  H    0.003283  -0.005245   0.379938   0.526739  -0.031322
    17  H   -0.005165   0.003282   0.380109  -0.031322   0.502035
 Mulliken charges:
               1
     1  C   -0.159262
     2  C   -0.186180
     3  C   -0.186189
     4  C   -0.159283
     5  H    0.177849
     6  H    0.175448
     7  H    0.175451
     8  H    0.177850
     9  C   -0.456964
    10  H    0.220460
    11  H    0.230458
    12  C   -0.370696
    13  H    0.191198
    14  H    0.174628
    15  C   -0.370624
    16  H    0.174629
    17  H    0.191231
 Sum of Mulliken charges =  -0.00000
 Mulliken charges with hydrogens summed into heavy atoms:
               1
     1  C    0.018586
     2  C   -0.010732
     3  C   -0.010738
     4  C    0.018567
     9  C   -0.006047
    12  C   -0.004871
    15  C   -0.004765
 Electronic spatial extent (au):  <R**2>=            822.5465
 Charge=             -0.0000 electrons
 Dipole moment (field-independent basis, Debye):
    X=             -0.1230    Y=              0.0002    Z=             -0.4681  Tot=              0.4840
 Quadrupole moment (field-independent basis, Debye-Ang):
   XX=            -48.0179   YY=            -40.1929   ZZ=            -40.0488
   XY=              0.0048   XZ=             -1.9139   YZ=              0.0002
 Traceless Quadrupole moment (field-independent basis, Debye-Ang):
   XX=             -5.2647   YY=              2.5603   ZZ=              2.7044
   XY=              0.0048   XZ=             -1.9139   YZ=              0.0002
 Octapole moment (field-independent basis, Debye-Ang**2):
  XXX=             -0.4832  YYY=             -0.0009  ZZZ=              1.1428  XYY=              0.7533
  XXY=              0.0007  XXZ=             -5.5050  XZZ=             -3.5879  YZZ=              0.0004
  YYZ=             -0.0674  XYZ=              0.0040
 Hexadecapole moment (field-independent basis, Debye-Ang**3):
 XXXX=           -694.8241 YYYY=           -253.1791 ZZZZ=           -213.6384 XXXY=              0.0370
 XXXZ=            -19.1393 YYYX=              0.0190 YYYZ=              0.0112 ZZZX=             -5.3624
 ZZZY=              0.0034 XXYY=           -147.8844 XXZZ=           -135.3858 YYZZ=            -75.8253
 XXYZ=             -0.0048 YYXZ=             -3.4497 ZZXY=              0.0050
 N-N= 2.745625239144D+02 E-N=-1.176380374939D+03  KE= 2.687332021227D+02
 1\1\GINC-TACHAS\FOpt\RB3LYP\3-21G\C7H10\LEOS\20-Oct-2019\0\\# opt=modr
 edundant b3lyp/3-21g geom=connectivity\\Title Card Required\\0,1\C,2.0
 001871955,-1.4003873543,0.1047844805\C,3.3478679332,-1.3369438323,0.02
 52174446\C,3.7718246633,0.0786082541,0.0333770829\C,2.6806346801,0.871
 5572722,0.1179445179\H,1.3891780935,-2.2915164176,0.1135535652\H,4.029
 1137444,-2.1749914661,-0.0281219979\H,4.801736345,0.4047515956,-0.0133
 231007\H,2.660082232,1.9516967281,0.1379631271\C,1.4308889349,0.007946
 6982,0.1249994545\H,0.8185749327,0.1965138147,-0.7694400757\H,0.815269
 355,0.1870845849,1.0121386627\C,2.132480672,-0.9159590009,3.2651369909
 \H,2.8049679701,-1.7128478138,2.9719010205\H,1.1287605587,-1.215441851
 8,3.5543342317\C,2.5158904319,0.3585392462,3.272254587\H,1.8431118357,
 1.1590862617,3.5676241252\H,3.517245682,0.6552636511,2.9850759237\\Ver
 sion=ES64L-G16RevB.01\State=1-A\HF=-271.1970121\RMSD=7.982e-09\RMSF=9.
 090e-04\Dipole=-0.1660035,0.0502569,-0.0785747\Quadrupole=2.2818558,1.
 9358597,-4.2177155,-0.1109708,-0.3393822,0.1374122\PG=C01 [X(C7H10)]\\
 @


 HO!  SUCH BUGS AND GOBLINS IN MY LIFE!

                            -- HAMLET, ACT 5, SCENE 2
 Job cpu time:       0 days  0 hours 16 minutes  7.8 seconds.
 Elapsed time:       0 days  0 hours  8 minutes  6.5 seconds.
 File lengths (MBytes):  RWF=     10 Int=      0 D2E=      0 Chk=      2 Scr=      1
 Normal termination of Gaussian 16 at Sun Oct 20 18:37:41 2019.
