 Entering Gaussian System, Link 0=g16
 Input=C3.3.com
 Output=C3.3.log
 Initial command:
 /opt/g16/l1.exe "/tmp/Gau-32296.inp" -scrdir="/tmp/"
 Entering Link 1 = /opt/g16/l1.exe PID=     32298.
  
 Copyright (c) 1988-2017, Gaussian, Inc.  All Rights Reserved.
  
 This is part of the Gaussian(R) 16 program.  It is based on
 the Gaussian(R) 09 system (copyright 2009, Gaussian, Inc.),
 the Gaussian(R) 03 system (copyright 2003, Gaussian, Inc.),
 the Gaussian(R) 98 system (copyright 1998, Gaussian, Inc.),
 the Gaussian(R) 94 system (copyright 1995, Gaussian, Inc.),
 the Gaussian 92(TM) system (copyright 1992, Gaussian, Inc.),
 the Gaussian 90(TM) system (copyright 1990, Gaussian, Inc.),
 the Gaussian 88(TM) system (copyright 1988, Gaussian, Inc.),
 the Gaussian 86(TM) system (copyright 1986, Carnegie Mellon
 University), and the Gaussian 82(TM) system (copyright 1983,
 Carnegie Mellon University). Gaussian is a federally registered
 trademark of Gaussian, Inc.
  
 This software contains proprietary and confidential information,
 including trade secrets, belonging to Gaussian, Inc.
  
 This software is provided under written license and may be
 used, copied, transmitted, or stored only in accord with that
 written license.
  
 The following legend is applicable only to US Government
 contracts under FAR:
  
                    RESTRICTED RIGHTS LEGEND
  
 Use, reproduction and disclosure by the US Government is
 subject to restrictions as set forth in subparagraphs (a)
 and (c) of the Commercial Computer Software - Restricted
 Rights clause in FAR 52.227-19.
  
 Gaussian, Inc.
 340 Quinnipiac St., Bldg. 40, Wallingford CT 06492
  
  
 ---------------------------------------------------------------
 Warning -- This program may not be used in any manner that
 competes with the business of Gaussian, Inc. or will provide
 assistance to any competitor of Gaussian, Inc.  The licensee
 of this program is prohibited from giving any competitor of
 Gaussian, Inc. access to this program.  By using this program,
 the user acknowledges that Gaussian, Inc. is engaged in the
 business of creating and licensing software in the field of
 computational chemistry and represents and warrants to the
 licensee that it is not a competitor of Gaussian, Inc. and that
 it will not use this program in any manner prohibited above.
 ---------------------------------------------------------------
  

 Cite this work as:
 Gaussian 16, Revision B.01,
 M. J. Frisch, G. W. Trucks, H. B. Schlegel, G. E. Scuseria, 
 M. A. Robb, J. R. Cheeseman, G. Scalmani, V. Barone, 
 G. A. Petersson, H. Nakatsuji, X. Li, M. Caricato, A. V. Marenich, 
 J. Bloino, B. G. Janesko, R. Gomperts, B. Mennucci, H. P. Hratchian, 
 J. V. Ortiz, A. F. Izmaylov, J. L. Sonnenberg, D. Williams-Young, 
 F. Ding, F. Lipparini, F. Egidi, J. Goings, B. Peng, A. Petrone, 
 T. Henderson, D. Ranasinghe, V. G. Zakrzewski, J. Gao, N. Rega, 
 G. Zheng, W. Liang, M. Hada, M. Ehara, K. Toyota, R. Fukuda, 
 J. Hasegawa, M. Ishida, T. Nakajima, Y. Honda, O. Kitao, H. Nakai, 
 T. Vreven, K. Throssell, J. A. Montgomery, Jr., J. E. Peralta, 
 F. Ogliaro, M. J. Bearpark, J. J. Heyd, E. N. Brothers, K. N. Kudin, 
 V. N. Staroverov, T. A. Keith, R. Kobayashi, J. Normand, 
 K. Raghavachari, A. P. Rendell, J. C. Burant, S. S. Iyengar, 
 J. Tomasi, M. Cossi, J. M. Millam, M. Klene, C. Adamo, R. Cammi, 
 J. W. Ochterski, R. L. Martin, K. Morokuma, O. Farkas, 
 J. B. Foresman, and D. J. Fox, Gaussian, Inc., Wallingford CT, 2016.
 
 ******************************************
 Gaussian 16:  ES64L-G16RevB.01 20-Dec-2017
                20-Oct-2019 
 ******************************************
 %nprocshared=2
 Will use up to    2 processors via shared memory.
 %mem=6GB
 %chk=C3.chk
 ------------------------------------------------
 # opt=modredundant b3lyp/3-21g geom=connectivity
 ------------------------------------------------
 1/18=120,19=15,26=3,38=1,57=2/1,3;
 2/9=110,12=2,17=6,18=5,40=1/2;
 3/5=5,11=2,25=1,30=1,71=1,74=-5/1,2,3;
 4//1;
 5/5=2,38=5/2;
 6/7=2,8=2,9=2,10=2,28=1/1;
 7//1,2,3,16;
 1/18=20,19=15,26=3/3(2);
 2/9=110/2;
 99//99;
 2/9=110/2;
 3/5=5,11=2,25=1,30=1,71=1,74=-5/1,2,3;
 4/5=5,16=3,69=1/1;
 5/5=2,38=5/2;
 7//1,2,3,16;
 1/18=20,19=15,26=3/3(-5);
 2/9=110/2;
 6/7=2,8=2,9=2,10=2,19=2,28=1/1;
 99/9=1/99;
 -------------------
 Title Card Required
 -------------------
 Symbolic Z-matrix:
 Charge =  0 Multiplicity = 1
 C                     1.91428  -1.31213   0.01839 
 C                     3.31603  -1.31213   0.01839 
 C                     3.74002   0.05867   0.01839 
 C                     2.58297   0.85012   0.01829 
 H                     1.21269  -2.14536   0.01849 
 H                     3.9604   -2.18483   0.01842 
 H                     4.76459   0.41516   0.01837 
 H                     2.47405   1.93389   0.01814 
 C                     1.47455   0.00838   0.01838 
 H                     0.8843    0.19084  -0.85523 
 H                     0.88443   0.19095   0.89207 
 C                     2.22632  -0.98728   3.28751 
 H                     2.99869  -1.72739   3.46377 
 H                     1.21011  -1.24598   3.46585 
 C                     2.5915    0.36954   3.2831 
 H                     1.83702   1.0986    3.48658 
 H                     3.6256    0.61719   3.4845 
 
 Add virtual bond connecting atoms C12        and H11        Dist= 5.65D+00.
 Add virtual bond connecting atoms H14        and H11        Dist= 5.60D+00.
 Add virtual bond connecting atoms C15        and H11        Dist= 5.56D+00.
 Add virtual bond connecting atoms H16        and H11        Dist= 5.50D+00.
 The following ModRedundant input section has been read:
 B       4      15 F                                                           
 B       1      12 F                                                           
 

 GradGradGradGradGradGradGradGradGradGradGradGradGradGradGradGradGradGrad
 Berny optimization.
 Initialization pass.
                           ----------------------------
                           !    Initial Parameters    !
                           ! (Angstroms and Degrees)  !
 --------------------------                            --------------------------
 ! Name  Definition              Value          Derivative Info.                !
 --------------------------------------------------------------------------------
 ! R1    R(1,2)                  1.4018         estimate D2E/DX2                !
 ! R2    R(1,5)                  1.0893         estimate D2E/DX2                !
 ! R3    R(1,9)                  1.3918         estimate D2E/DX2                !
 ! R4    R(1,12)                 3.3            Frozen                          !
 ! R5    R(2,3)                  1.4349         estimate D2E/DX2                !
 ! R6    R(2,6)                  1.0848         estimate D2E/DX2                !
 ! R7    R(3,4)                  1.4018         estimate D2E/DX2                !
 ! R8    R(3,7)                  1.0848         estimate D2E/DX2                !
 ! R9    R(4,8)                  1.0892         estimate D2E/DX2                !
 ! R10   R(4,9)                  1.3918         estimate D2E/DX2                !
 ! R11   R(4,15)                 3.3            Frozen                          !
 ! R12   R(9,10)                 1.07           estimate D2E/DX2                !
 ! R13   R(9,11)                 1.07           estimate D2E/DX2                !
 ! R14   R(11,12)                2.9878         estimate D2E/DX2                !
 ! R15   R(11,14)                2.9657         estimate D2E/DX2                !
 ! R16   R(11,15)                2.9433         estimate D2E/DX2                !
 ! R17   R(11,16)                2.9091         estimate D2E/DX2                !
 ! R18   R(12,13)                1.0841         estimate D2E/DX2                !
 ! R19   R(12,14)                1.0637         estimate D2E/DX2                !
 ! R20   R(12,15)                1.4051         estimate D2E/DX2                !
 ! R21   R(15,16)                1.0687         estimate D2E/DX2                !
 ! R22   R(15,17)                1.0822         estimate D2E/DX2                !
 ! A1    A(2,1,5)              130.0976         estimate D2E/DX2                !
 ! A2    A(2,1,9)              108.4177         estimate D2E/DX2                !
 ! A3    A(5,1,9)              121.4847         estimate D2E/DX2                !
 ! A4    A(1,2,3)              107.1873         estimate D2E/DX2                !
 ! A5    A(1,2,6)              126.4408         estimate D2E/DX2                !
 ! A6    A(3,2,6)              126.372          estimate D2E/DX2                !
 ! A7    A(2,3,4)              107.1858         estimate D2E/DX2                !
 ! A8    A(2,3,7)              126.3724         estimate D2E/DX2                !
 ! A9    A(4,3,7)              126.4419         estimate D2E/DX2                !
 ! A10   A(3,4,8)              130.1121         estimate D2E/DX2                !
 ! A11   A(3,4,9)              108.4137         estimate D2E/DX2                !
 ! A12   A(8,4,9)              121.4742         estimate D2E/DX2                !
 ! A13   A(1,9,4)              108.7956         estimate D2E/DX2                !
 ! A14   A(1,9,10)             109.6383         estimate D2E/DX2                !
 ! A15   A(1,9,11)             109.6412         estimate D2E/DX2                !
 ! A16   A(4,9,10)             109.6414         estimate D2E/DX2                !
 ! A17   A(4,9,11)             109.6385         estimate D2E/DX2                !
 ! A18   A(10,9,11)            109.4712         estimate D2E/DX2                !
 ! A19   A(9,11,12)            109.8558         estimate D2E/DX2                !
 ! A20   A(9,11,14)            124.4295         estimate D2E/DX2                !
 ! A21   A(9,11,15)            110.7197         estimate D2E/DX2                !
 ! A22   A(9,11,16)            126.9325         estimate D2E/DX2                !
 ! A23   A(12,11,16)            42.3475         estimate D2E/DX2                !
 ! A24   A(14,11,15)            42.3273         estimate D2E/DX2                !
 ! A25   A(14,11,16)            48.7914         estimate D2E/DX2                !
 ! A26   A(11,12,13)           136.0143         estimate D2E/DX2                !
 ! A27   A(13,12,14)           119.1651         estimate D2E/DX2                !
 ! A28   A(13,12,15)           118.3308         estimate D2E/DX2                !
 ! A29   A(14,12,15)           118.9258         estimate D2E/DX2                !
 ! A30   A(11,15,17)           135.9923         estimate D2E/DX2                !
 ! A31   A(12,15,16)           118.3369         estimate D2E/DX2                !
 ! A32   A(12,15,17)           117.9509         estimate D2E/DX2                !
 ! A33   A(16,15,17)           118.8831         estimate D2E/DX2                !
 ! D1    D(5,1,2,3)           -179.9933         estimate D2E/DX2                !
 ! D2    D(5,1,2,6)              0.0051         estimate D2E/DX2                !
 ! D3    D(9,1,2,3)              0.0004         estimate D2E/DX2                !
 ! D4    D(9,1,2,6)            179.9987         estimate D2E/DX2                !
 ! D5    D(2,1,9,4)              0.0039         estimate D2E/DX2                !
 ! D6    D(2,1,9,10)           119.9009         estimate D2E/DX2                !
 ! D7    D(2,1,9,11)          -119.8913         estimate D2E/DX2                !
 ! D8    D(5,1,9,4)            179.9982         estimate D2E/DX2                !
 ! D9    D(5,1,9,10)           -60.1048         estimate D2E/DX2                !
 ! D10   D(5,1,9,11)            60.103          estimate D2E/DX2                !
 ! D11   D(1,2,3,4)             -0.0044         estimate D2E/DX2                !
 ! D12   D(1,2,3,7)           -179.9984         estimate D2E/DX2                !
 ! D13   D(6,2,3,4)            179.9972         estimate D2E/DX2                !
 ! D14   D(6,2,3,7)              0.0033         estimate D2E/DX2                !
 ! D15   D(2,3,4,8)           -179.9922         estimate D2E/DX2                !
 ! D16   D(2,3,4,9)              0.0069         estimate D2E/DX2                !
 ! D17   D(7,3,4,8)              0.0017         estimate D2E/DX2                !
 ! D18   D(7,3,4,9)           -179.9992         estimate D2E/DX2                !
 ! D19   D(3,4,9,1)             -0.0067         estimate D2E/DX2                !
 ! D20   D(3,4,9,10)          -119.9018         estimate D2E/DX2                !
 ! D21   D(3,4,9,11)           119.8901         estimate D2E/DX2                !
 ! D22   D(8,4,9,1)            179.9924         estimate D2E/DX2                !
 ! D23   D(8,4,9,10)            60.0973         estimate D2E/DX2                !
 ! D24   D(8,4,9,11)           -60.1107         estimate D2E/DX2                !
 ! D25   D(1,9,11,12)           44.6474         estimate D2E/DX2                !
 ! D26   D(1,9,11,14)           28.2271         estimate D2E/DX2                !
 ! D27   D(1,9,11,15)           73.8787         estimate D2E/DX2                !
 ! D28   D(1,9,11,16)           89.2837         estimate D2E/DX2                !
 ! D29   D(4,9,11,12)          -74.7314         estimate D2E/DX2                !
 ! D30   D(4,9,11,14)          -91.1516         estimate D2E/DX2                !
 ! D31   D(4,9,11,15)          -45.5001         estimate D2E/DX2                !
 ! D32   D(4,9,11,16)          -30.0951         estimate D2E/DX2                !
 ! D33   D(10,9,11,12)         164.957          estimate D2E/DX2                !
 ! D34   D(10,9,11,14)         148.5367         estimate D2E/DX2                !
 ! D35   D(10,9,11,15)        -165.8117         estimate D2E/DX2                !
 ! D36   D(10,9,11,16)        -150.4067         estimate D2E/DX2                !
 ! D37   D(9,11,12,13)         -18.0559         estimate D2E/DX2                !
 ! D38   D(16,11,12,13)       -141.572          estimate D2E/DX2                !
 ! D39   D(9,11,15,17)          24.682          estimate D2E/DX2                !
 ! D40   D(14,11,15,17)        143.5248         estimate D2E/DX2                !
 ! D41   D(13,12,15,16)       -156.8622         estimate D2E/DX2                !
 ! D42   D(13,12,15,17)         -1.7141         estimate D2E/DX2                !
 ! D43   D(14,12,15,16)          1.6495         estimate D2E/DX2                !
 ! D44   D(14,12,15,17)        156.7976         estimate D2E/DX2                !
 --------------------------------------------------------------------------------
 Trust Radius=3.00D-01 FncErr=1.00D-07 GrdErr=1.00D-06 EigMax=2.50D+02 EigMin=1.00D-04
 Number of steps in this run=    102 maximum allowed number of steps=    102.
 GradGradGradGradGradGradGradGradGradGradGradGradGradGradGradGradGradGrad

                          Input orientation:                          
 ---------------------------------------------------------------------
 Center     Atomic      Atomic             Coordinates (Angstroms)
 Number     Number       Type             X           Y           Z
 ---------------------------------------------------------------------
      1          6           0        1.914276   -1.312128    0.018394
      2          6           0        3.316026   -1.312128    0.018394
      3          6           0        3.740024    0.058668    0.018394
      4          6           0        2.582967    0.850121    0.018290
      5          1           0        1.212688   -2.145361    0.018492
      6          1           0        3.960399   -2.184834    0.018419
      7          1           0        4.764587    0.415160    0.018369
      8          1           0        2.474045    1.933893    0.018143
      9          6           0        1.474549    0.008380    0.018385
     10          1           0        0.884296    0.190842   -0.855234
     11          1           0        0.884427    0.190951    0.892069
     12          6           0        2.226324   -0.987278    3.287507
     13          1           0        2.998686   -1.727388    3.463766
     14          1           0        1.210108   -1.245980    3.465854
     15          6           0        2.591505    0.369538    3.283097
     16          1           0        1.837021    1.098595    3.486585
     17          1           0        3.625600    0.617187    3.484497
 ---------------------------------------------------------------------
                    Distance matrix (angstroms):
                    1          2          3          4          5
     1  C    0.000000
     2  C    1.401750   0.000000
     3  C    2.283076   1.434871   0.000000
     4  C    2.263287   2.283133   1.401848   0.000000
     5  H    1.089267   2.262368   3.353382   3.294021   0.000000
     6  H    2.224463   1.084819   2.254300   3.332907   2.747995
     7  H    3.332836   2.254297   1.084811   2.224558   4.378613
     8  H    3.293933   3.353444   2.262559   1.089232   4.269817
     9  C    1.391798   2.266005   2.266033   1.391804   2.169602
    10  H    2.020644   2.989223   2.989294   2.020687   2.515767
    11  H    2.020679   2.989185   2.989187   2.020652   2.515799
    12  C    3.300000   3.461225   3.751318   3.767095   3.613180
    13  H    3.635791   3.484786   3.950971   4.322925   3.903128
    14  H    3.519263   4.040328   4.470745   4.261934   3.562751
    15  C    3.734291   3.743156   3.474770   3.300000   4.345515
    16  H    4.224441   4.475197   4.090381   3.556296   4.789646
    17  H    4.320273   3.978940   3.512678   3.627111   5.046485
                    6          7          8          9         10
     6  H    0.000000
     7  H    2.721523   0.000000
     8  H    4.378717   2.748296   0.000000
     9  C    3.315062   3.315090   2.169468   0.000000
    10  H    3.983656   3.983736   2.515614   1.070000   0.000000
    11  H    3.983619   3.983624   2.515647   1.070000   1.747303
    12  C    3.889485   4.369997   4.391281   3.499094   4.511242
    13  H    3.606184   4.424893   5.054953   4.148076   5.177259
    14  H    4.508920   5.222917   4.857555   3.678096   4.565349
    15  C    4.365411   3.922094   3.622283   3.469347   4.480209
    16  H    5.226645   4.589798   3.624032   3.653542   4.536859
    17  H    4.469576   3.654060   3.882706   4.124512   5.150706
                   11         12         13         14         15
    11  H    0.000000
    12  C    2.987814   0.000000
    13  H    3.842362   1.084146   0.000000
    14  H    2.965672   1.063687   1.852234   0.000000
    15  C    2.943301   1.405107   2.143720   2.133438   0.000000
    16  H    2.909083   2.131210   3.055514   2.427032   1.068727
    17  H    3.796892   2.138010   2.427032   3.050630   1.082241
                   16         17
    16  H    0.000000
    17  H    1.852234   0.000000
 Stoichiometry    C7H10
 Framework group  C1[X(C7H10)]
 Deg. of freedom    45
 Full point group                 C1      NOp   1
 Largest Abelian subgroup         C1      NOp   1
 Largest concise Abelian subgroup C1      NOp   1
                         Standard orientation:                         
 ---------------------------------------------------------------------
 Center     Atomic      Atomic             Coordinates (Angstroms)
 Number     Number       Type             X           Y           Z
 ---------------------------------------------------------------------
      1          6           0       -0.984604    1.117459   -0.405049
      2          6           0       -1.078590    0.768493    0.949312
      3          6           0       -1.096482   -0.664639    1.017642
      4          6           0       -1.012922   -1.143088   -0.297380
      5          1           0       -0.943870    2.099081   -0.875433
      6          1           0       -1.128479    1.453268    1.789209
      7          1           0       -1.162463   -1.264956    1.918798
      8          1           0       -0.997434   -2.165574   -0.672493
      9          6           0       -0.944978   -0.051946   -1.158722
     10          1           0       -1.775626   -0.073615   -1.832854
     11          1           0       -0.032315   -0.089947   -1.715949
     12          6           0        2.258630    0.694867    0.034099
     13          1           0        2.377012    1.217730    0.976422
     14          1           0        2.502719    1.196747   -0.871422
     15          6           0        2.240175   -0.710042    0.048786
     16          1           0        2.499391   -1.230171   -0.848126
     17          1           0        2.373684   -1.209188    0.999719
 ---------------------------------------------------------------------
 Rotational constants (GHZ):           3.7666893           1.8281924           1.7436458
 Standard basis: 3-21G (6D, 7F)
 There are    83 symmetry adapted cartesian basis functions of A   symmetry.
 There are    83 symmetry adapted basis functions of A   symmetry.
    83 basis functions,   135 primitive gaussians,    83 cartesian basis functions
    26 alpha electrons       26 beta electrons
       nuclear repulsion energy       275.0927241955 Hartrees.
 NAtoms=   17 NActive=   17 NUniq=   17 SFac= 1.00D+00 NAtFMM=   60 NAOKFM=F Big=F
 Integral buffers will be    131072 words long.
 Raffenetti 2 integral format.
 Two-electron integral symmetry is turned on.
 One-electron integrals computed using PRISM.
 NBasis=    83 RedAO= T EigKep=  4.15D-03  NBF=    83
 NBsUse=    83 1.00D-06 EigRej= -1.00D+00 NBFU=    83
 ExpMin= 1.83D-01 ExpMax= 1.72D+02 ExpMxC= 1.72D+02 IAcc=3 IRadAn=         5 AccDes= 0.00D+00
 Harris functional with IExCor=  402 and IRadAn=       5 diagonalized for initial guess.
 HarFok:  IExCor=  402 AccDes= 0.00D+00 IRadAn=         5 IDoV= 1 UseB2=F ITyADJ=14
 ICtDFT=  3500011 ScaDFX=  1.000000  1.000000  1.000000  1.000000
 FoFCou: FMM=F IPFlag=           0 FMFlag=      100000 FMFlg1=           0
         NFxFlg=           0 DoJE=T BraDBF=F KetDBF=T FulRan=T
         wScrn=  0.000000 ICntrl=       500 IOpCl=  0 I1Cent=   200000004 NGrid=           0
         NMat0=    1 NMatS0=      1 NMatT0=    0 NMatD0=    1 NMtDS0=    0 NMtDT0=    0
 Petite list used in FoFCou.
 Keep R1 ints in memory in canonical form, NReq=7891734.
 Requested convergence on RMS density matrix=1.00D-08 within 128 cycles.
 Requested convergence on MAX density matrix=1.00D-06.
 Requested convergence on             energy=1.00D-06.
 No special actions if energy rises.
 Integral accuracy reduced to 1.0D-05 until final iterations.
 Initial convergence to 1.0D-05 achieved.  Increase integral accuracy.
 SCF Done:  E(RB3LYP) =  -271.156288053     A.U. after   13 cycles
            NFock= 13  Conv=0.68D-08     -V/T= 2.0080

 **********************************************************************

            Population analysis using the SCF Density.

 **********************************************************************

 Orbital symmetries:
       Occupied  (A) (A) (A) (A) (A) (A) (A) (A) (A) (A) (A) (A)
                 (A) (A) (A) (A) (A) (A) (A) (A) (A) (A) (A) (A)
                 (A) (A)
       Virtual   (A) (A) (A) (A) (A) (A) (A) (A) (A) (A) (A) (A)
                 (A) (A) (A) (A) (A) (A) (A) (A) (A) (A) (A) (A)
                 (A) (A) (A) (A) (A) (A) (A) (A) (A) (A) (A) (A)
                 (A) (A) (A) (A) (A) (A) (A) (A) (A) (A) (A) (A)
                 (A) (A) (A) (A) (A) (A) (A) (A) (A)
 The electronic state is 1-A.
 Alpha  occ. eigenvalues --  -10.11632 -10.11506 -10.11472 -10.11356 -10.10848
 Alpha  occ. eigenvalues --  -10.10834 -10.09827  -0.87476  -0.73865  -0.71530
 Alpha  occ. eigenvalues --   -0.68962  -0.57253  -0.53715  -0.53694  -0.51286
 Alpha  occ. eigenvalues --   -0.46357  -0.45617  -0.39652  -0.38498  -0.37207
 Alpha  occ. eigenvalues --   -0.36825  -0.35840  -0.35644  -0.28666  -0.24240
 Alpha  occ. eigenvalues --   -0.19903
 Alpha virt. eigenvalues --   -0.00593   0.01054   0.09291   0.12797   0.14852
 Alpha virt. eigenvalues --    0.16917   0.18306   0.18895   0.19559   0.20297
 Alpha virt. eigenvalues --    0.20443   0.21719   0.26557   0.26813   0.27888
 Alpha virt. eigenvalues --    0.33952   0.39373   0.42845   0.48127   0.65905
 Alpha virt. eigenvalues --    0.67515   0.70261   0.71023   0.72219   0.72874
 Alpha virt. eigenvalues --    0.76082   0.77783   0.80035   0.81182   0.83408
 Alpha virt. eigenvalues --    0.84417   0.84901   0.90828   0.92436   0.93992
 Alpha virt. eigenvalues --    0.97074   0.99810   1.02451   1.03258   1.03928
 Alpha virt. eigenvalues --    1.05468   1.05820   1.08045   1.08631   1.09423
 Alpha virt. eigenvalues --    1.15252   1.30754   1.31970   1.33075   1.38643
 Alpha virt. eigenvalues --    1.39050   1.48788   1.62361   1.82602   1.84232
 Alpha virt. eigenvalues --    2.08510   2.24851
          Condensed to atoms (all electrons):
               1          2          3          4          5          6
     1  C    5.269474   0.544761  -0.119016  -0.143324   0.393511  -0.033793
     2  C    0.544761   5.159540   0.405269  -0.118955  -0.024414   0.387063
     3  C   -0.119016   0.405269   5.159592   0.544892   0.003308  -0.033524
     4  C   -0.143324  -0.118955   0.544892   5.269110   0.004857   0.003795
     5  H    0.393511  -0.024414   0.003308   0.004857   0.498970  -0.001482
     6  H   -0.033793   0.387063  -0.033524   0.003795  -0.001482   0.503213
     7  H    0.003796  -0.033537   0.387078  -0.033773  -0.000048  -0.001028
     8  H    0.004858   0.003306  -0.024387   0.393523  -0.000065  -0.000048
     9  C    0.309196  -0.143359  -0.143341   0.309111  -0.046752   0.005215
    10  H   -0.044779   0.003016   0.003020  -0.044841  -0.001053  -0.000114
    11  H   -0.043344   0.002571   0.002584  -0.043350  -0.001149  -0.000110
    12  C    0.005700   0.001420  -0.001404  -0.001942  -0.000074   0.000008
    13  H    0.000049   0.000240  -0.000022   0.000003  -0.000004   0.000038
    14  H    0.000157  -0.000008   0.000012   0.000006   0.000038  -0.000000
    15  C   -0.002122  -0.001481   0.001416   0.005821  -0.000019  -0.000004
    16  H    0.000010   0.000014  -0.000002   0.000122  -0.000000  -0.000000
    17  H    0.000007  -0.000027   0.000173   0.000038   0.000000  -0.000001
               7          8          9         10         11         12
     1  C    0.003796   0.004858   0.309196  -0.044779  -0.043344   0.005700
     2  C   -0.033537   0.003306  -0.143359   0.003016   0.002571   0.001420
     3  C    0.387078  -0.024387  -0.143341   0.003020   0.002584  -0.001404
     4  C   -0.033773   0.393523   0.309111  -0.044841  -0.043350  -0.001942
     5  H   -0.000048  -0.000065  -0.046752  -0.001053  -0.001149  -0.000074
     6  H   -0.001028  -0.000048   0.005215  -0.000114  -0.000110   0.000008
     7  H    0.503157  -0.001481   0.005214  -0.000115  -0.000110  -0.000003
     8  H   -0.001481   0.498733  -0.046743  -0.001054  -0.001159  -0.000016
     9  C    0.005214  -0.046743   5.588613   0.344634   0.338123  -0.002437
    10  H   -0.000115  -0.001054   0.344634   0.510734  -0.015620   0.000086
    11  H   -0.000110  -0.001159   0.338123  -0.015620   0.496490   0.003932
    12  C   -0.000003  -0.000016  -0.002437   0.000086   0.003932   5.173776
    13  H   -0.000000  -0.000000   0.000018  -0.000000   0.000014   0.379629
    14  H   -0.000000  -0.000000  -0.000048   0.000001   0.000303   0.378590
    15  C    0.000008  -0.000075  -0.002749   0.000094   0.004594   0.529508
    16  H    0.000000   0.000026  -0.000081   0.000002   0.000359  -0.047969
    17  H    0.000030  -0.000003   0.000025  -0.000000   0.000014  -0.044779
              13         14         15         16         17
     1  C    0.000049   0.000157  -0.002122   0.000010   0.000007
     2  C    0.000240  -0.000008  -0.001481   0.000014  -0.000027
     3  C   -0.000022   0.000012   0.001416  -0.000002   0.000173
     4  C    0.000003   0.000006   0.005821   0.000122   0.000038
     5  H   -0.000004   0.000038  -0.000019  -0.000000   0.000000
     6  H    0.000038  -0.000000  -0.000004  -0.000000  -0.000001
     7  H   -0.000000  -0.000000   0.000008   0.000000   0.000030
     8  H   -0.000000  -0.000000  -0.000075   0.000026  -0.000003
     9  C    0.000018  -0.000048  -0.002749  -0.000081   0.000025
    10  H   -0.000000   0.000001   0.000094   0.000002  -0.000000
    11  H    0.000014   0.000303   0.004594   0.000359   0.000014
    12  C    0.379629   0.378590   0.529508  -0.047969  -0.044779
    13  H    0.511437  -0.030807  -0.044327   0.003299  -0.004608
    14  H   -0.030807   0.517850  -0.047466  -0.004320   0.003306
    15  C   -0.044327  -0.047466   5.174236   0.377873   0.379951
    16  H    0.003299  -0.004320   0.377873   0.521299  -0.031134
    17  H   -0.004608   0.003306   0.379951  -0.031134   0.512122
 Mulliken charges:
               1
     1  C   -0.145139
     2  C   -0.185417
     3  C   -0.185647
     4  C   -0.145094
     5  H    0.174376
     6  H    0.170774
     7  H    0.170814
     8  H    0.174586
     9  C   -0.514639
    10  H    0.245990
    11  H    0.255861
    12  C   -0.374025
    13  H    0.185044
    14  H    0.182386
    15  C   -0.375258
    16  H    0.180504
    17  H    0.184886
 Sum of Mulliken charges =  -0.00000
 Mulliken charges with hydrogens summed into heavy atoms:
               1
     1  C    0.029237
     2  C   -0.014644
     3  C   -0.014833
     4  C    0.029492
     9  C   -0.012789
    12  C   -0.006595
    15  C   -0.009868
 Electronic spatial extent (au):  <R**2>=            839.7878
 Charge=             -0.0000 electrons
 Dipole moment (field-independent basis, Debye):
    X=              0.4153    Y=             -0.0146    Z=             -0.6969  Tot=              0.8114
 Quadrupole moment (field-independent basis, Debye-Ang):
   XX=            -46.0929   YY=            -41.0767   ZZ=            -38.8454
   XY=              0.1091   XZ=              0.4543   YZ=              0.0909
 Traceless Quadrupole moment (field-independent basis, Debye-Ang):
   XX=             -4.0879   YY=              0.9283   ZZ=              3.1596
   XY=              0.1091   XZ=              0.4543   YZ=              0.0909
 Octapole moment (field-independent basis, Debye-Ang**2):
  XXX=              4.3177  YYY=             -0.0604  ZZZ=              1.4139  XYY=              1.5021
  XXY=             -0.2268  XXZ=             -3.4588  XZZ=             -0.4465  YZZ=              0.1632
  YYZ=             -0.6792  XYZ=             -0.1021
 Hexadecapole moment (field-independent basis, Debye-Ang**3):
 XXXX=           -717.7379 YYYY=           -249.9380 ZZZZ=           -212.6971 XXXY=              0.5766
 XXXZ=              5.6427 YYYX=              0.4623 YYYZ=              0.5285 ZZZX=             -1.2288
 ZZZY=             -0.5297 XXYY=           -149.7988 XXZZ=           -134.4847 YYZZ=            -71.5914
 XXYZ=              0.3181 YYXZ=              0.1814 ZZXY=              0.0089
 N-N= 2.750927241955D+02 E-N=-1.177646189321D+03  KE= 2.690073380483D+02
 Calling FoFJK, ICntrl=      2127 FMM=F ISym2X=0 I1Cent= 0 IOpClX= 0 NMat=1 NMatS=1 NMatT=0.
 ***** Axes restored to original set *****
 -------------------------------------------------------------------
 Center     Atomic                   Forces (Hartrees/Bohr)
 Number     Number              X              Y              Z
 -------------------------------------------------------------------
      1        6           0.053894005   -0.081795421    0.001516036
      2        6          -0.035144361   -0.022945237   -0.001388878
      3        6          -0.016133083    0.038841881   -0.001414953
      4        6           0.090797398    0.037016775    0.001691843
      5        1           0.009969111   -0.000401903   -0.000203576
      6        1          -0.001540148    0.003174838   -0.000004445
      7        1          -0.003061633   -0.001748889    0.000008902
      8        1           0.008475753   -0.005278880   -0.000172744
      9        6          -0.066966178    0.020563924   -0.001623311
     10        1          -0.020503759    0.006317643   -0.015806991
     11        1          -0.018518429    0.005746440    0.015183502
     12        6           0.032970616    0.072895207    0.016551092
     13        1          -0.002404581   -0.004488075   -0.009991010
     14        1          -0.015145584   -0.008575601   -0.006748219
     15        6          -0.012223548   -0.078202206    0.021104553
     16        1          -0.006383544    0.013038725   -0.007942513
     17        1           0.001917965    0.005840778   -0.010759289
 -------------------------------------------------------------------
 Cartesian Forces:  Max     0.090797398 RMS     0.029200696

 GradGradGradGradGradGradGradGradGradGradGradGradGradGradGradGradGradGrad
 Berny optimization.
 FormGI is forming the generalized inverse of G from B-inverse, IUseBI=4.
 Internal  Forces:  Max     0.079362650 RMS     0.015211174
 Search for a local minimum.
 Step number   1 out of a maximum of  102
 All quantities printed in internal units (Hartrees-Bohrs-Radians)
 Mixed Optimization -- RFO/linear search
 Second derivative matrix not updated -- first step.
 ITU=  0
     Eigenvalues ---    0.00805   0.01437   0.01464   0.01792   0.01910
     Eigenvalues ---    0.01933   0.02130   0.02138   0.02177   0.02369
     Eigenvalues ---    0.02572   0.04019   0.04287   0.04845   0.05359
     Eigenvalues ---    0.07131   0.07912   0.09204   0.09877   0.13795
     Eigenvalues ---    0.14489   0.16000   0.16000   0.16000   0.16000
     Eigenvalues ---    0.17350   0.22000   0.31060   0.34897   0.34902
     Eigenvalues ---    0.35248   0.35418   0.35419   0.35498   0.35725
     Eigenvalues ---    0.35772   0.36523   0.37230   0.40024   0.40317
     Eigenvalues ---    0.43918   0.45646   0.465681000.000001000.00000
     Eigenvalues --- 1000.000001000.000001000.000001000.000001000.00000
     Eigenvalues --- 1000.000001000.000001000.000001000.000001000.00000
     Eigenvalues --- 1000.000001000.000001000.000001000.000001000.00000
     Eigenvalues --- 1000.000001000.000001000.000001000.000001000.00000
     Eigenvalues --- 1000.000001000.000001000.000001000.000001000.00000
     Eigenvalues --- 1000.000001000.000001000.000001000.000001000.00000
     Eigenvalues --- 1000.000001000.000001000.000001000.000001000.00000
     Eigenvalues --- 1000.000001000.000001000.000001000.000001000.00000
     Eigenvalues --- 1000.000001000.000001000.000001000.000001000.00000
     Eigenvalues --- 1000.000001000.000001000.000001000.000001000.00000
     Eigenvalues --- 1000.000001000.000001000.000001000.00000
 RFO step:  Lambda=-5.42289245D-02 EMin= 8.04949091D-03
 Linear search not attempted -- first point.
 Maximum step size (   0.300) exceeded in Quadratic search.
    -- Step size scaled by   0.840
 Iteration  1 RMS(Cart)=  0.04348219 RMS(Int)=  0.00130180
 Iteration  2 RMS(Cart)=  0.00124767 RMS(Int)=  0.00068860
 Iteration  3 RMS(Cart)=  0.00000115 RMS(Int)=  0.00068860
 Iteration  4 RMS(Cart)=  0.00000000 RMS(Int)=  0.00068860
 Iteration  1 RMS(Cart)=  0.00004909 RMS(Int)=  0.00001177
 Iteration  2 RMS(Cart)=  0.00000773 RMS(Int)=  0.00001256
 Iteration  3 RMS(Cart)=  0.00000150 RMS(Int)=  0.00001288
 Iteration  4 RMS(Cart)=  0.00000032 RMS(Int)=  0.00001295
 Variable       Old X    -DE/DX   Delta X   Delta X   Delta X     New X
                                 (Linear)    (Quad)   (Total)
    R1        2.64892  -0.02742   0.00000  -0.04957  -0.04963   2.59929
    R2        2.05842  -0.00611   0.00000  -0.01274  -0.01274   2.04568
    R3        2.63012   0.07936   0.00000   0.13856   0.13868   2.76880
    R4        6.23610   0.00689   0.00000   0.00000   0.00000   6.23610
    R5        2.71151   0.03139   0.00000   0.04186   0.04167   2.75319
    R6        2.05001  -0.00347   0.00000  -0.00713  -0.00713   2.04288
    R7        2.64911  -0.02750   0.00000  -0.04975  -0.04981   2.59930
    R8        2.05000  -0.00347   0.00000  -0.00713  -0.00713   2.04287
    R9        2.05835  -0.00610   0.00000  -0.01271  -0.01271   2.04564
   R10        2.63013   0.07924   0.00000   0.13842   0.13857   2.76870
   R11        6.23610   0.00744   0.00000   0.00000  -0.00000   6.23610
   R12        2.02201   0.02529   0.00000   0.04981   0.04981   2.07182
   R13        2.02201   0.01504   0.00000   0.03541   0.03511   2.05712
   R14        5.64615  -0.00529   0.00000  -0.00460  -0.00445   5.64171
   R15        5.60431  -0.00365   0.00000  -0.06190  -0.06254   5.54176
   R16        5.56203  -0.00364   0.00000   0.00468   0.00463   5.56666
   R17        5.49737  -0.00417   0.00000  -0.06324  -0.06366   5.43371
   R18        2.04874  -0.00027   0.00000  -0.00056  -0.00056   2.04818
   R19        2.01008   0.01739   0.00000   0.03104   0.03170   2.04178
   R20        2.65527  -0.05150   0.00000  -0.09788  -0.09760   2.55767
   R21        2.01960   0.01404   0.00000   0.02445   0.02520   2.04480
   R22        2.04514   0.00117   0.00000   0.00238   0.00238   2.04752
    A1        2.27063  -0.00451   0.00000  -0.03088  -0.03091   2.23973
    A2        1.89225  -0.00721   0.00000  -0.00190  -0.00187   1.89037
    A3        2.12031   0.01172   0.00000   0.03278   0.03274   2.15304
    A4        1.87077   0.01670   0.00000   0.02686   0.02658   1.89735
    A5        2.20681  -0.00769   0.00000  -0.01082  -0.01069   2.19612
    A6        2.20561  -0.00902   0.00000  -0.01604  -0.01591   2.18970
    A7        1.87074   0.01673   0.00000   0.02690   0.02662   1.89736
    A8        2.20561  -0.00903   0.00000  -0.01604  -0.01590   2.18971
    A9        2.20683  -0.00771   0.00000  -0.01086  -0.01072   2.19610
   A10        2.27088  -0.00455   0.00000  -0.03099  -0.03102   2.23986
   A11        1.89218  -0.00716   0.00000  -0.00180  -0.00178   1.89039
   A12        2.12012   0.01171   0.00000   0.03280   0.03276   2.15288
   A13        1.89884  -0.01906   0.00000  -0.05006  -0.04976   1.84908
   A14        1.91355   0.00671   0.00000   0.02754   0.02789   1.94144
   A15        1.91360   0.00727   0.00000   0.01334   0.01302   1.92662
   A16        1.91360   0.00709   0.00000   0.02932   0.02946   1.94306
   A17        1.91355   0.00643   0.00000   0.00907   0.00919   1.92274
   A18        1.91063  -0.00842   0.00000  -0.02911  -0.02914   1.88149
   A19        1.91735  -0.00594   0.00000  -0.01420  -0.01433   1.90302
   A20        2.17171  -0.00531   0.00000  -0.02009  -0.02018   2.15153
   A21        1.93242  -0.00625   0.00000  -0.01418  -0.01430   1.91813
   A22        2.21539  -0.00603   0.00000  -0.02061  -0.02071   2.19468
   A23        0.73910  -0.00336   0.00000   0.00012  -0.00046   0.73864
   A24        0.73875  -0.00327   0.00000  -0.00025  -0.00067   0.73808
   A25        0.85157   0.00134   0.00000   0.02193   0.02097   0.87254
   A26        2.37390  -0.00918   0.00000  -0.04636  -0.04656   2.32734
   A27        2.07982  -0.00442   0.00000  -0.01322  -0.01622   2.06361
   A28        2.06526  -0.00181   0.00000   0.01298   0.01291   2.07817
   A29        2.07565   0.01075   0.00000   0.03463   0.03252   2.10817
   A30        2.37351  -0.01001   0.00000  -0.05122  -0.05128   2.32223
   A31        2.06537   0.01186   0.00000   0.03921   0.03666   2.10202
   A32        2.05863  -0.00129   0.00000   0.01718   0.01668   2.07531
   A33        2.07490  -0.00459   0.00000  -0.01096  -0.01459   2.06031
    D1       -3.14148  -0.00018   0.00000   0.00174   0.00228  -3.13920
    D2        0.00009  -0.00032   0.00000  -0.00292  -0.00271  -0.00262
    D3        0.00001   0.00059   0.00000   0.01194   0.01234   0.01235
    D4        3.14157   0.00045   0.00000   0.00727   0.00735  -3.13426
    D5        0.00007  -0.00091   0.00000  -0.01931  -0.01917  -0.01910
    D6        2.09267   0.00017   0.00000   0.00247   0.00221   2.09487
    D7       -2.09250  -0.00151   0.00000  -0.00794  -0.00794  -2.10044
    D8        3.14156  -0.00022   0.00000  -0.01017  -0.00972   3.13184
    D9       -1.04903   0.00085   0.00000   0.01162   0.01166  -1.03737
   D10        1.04900  -0.00082   0.00000   0.00120   0.00150   1.05050
   D11       -0.00008  -0.00005   0.00000  -0.00028  -0.00027  -0.00035
   D12       -3.14156  -0.00010   0.00000  -0.00450  -0.00482   3.13680
   D13        3.14154   0.00008   0.00000   0.00438   0.00470  -3.13695
   D14        0.00006   0.00004   0.00000   0.00016   0.00014   0.00020
   D15       -3.14146   0.00037   0.00000  -0.00085  -0.00146   3.14027
   D16        0.00012  -0.00050   0.00000  -0.01149  -0.01192  -0.01180
   D17        0.00003   0.00041   0.00000   0.00337   0.00311   0.00314
   D18       -3.14158  -0.00046   0.00000  -0.00727  -0.00735   3.13425
   D19       -0.00012   0.00088   0.00000   0.01914   0.01900   0.01889
   D20       -2.09268   0.00004   0.00000  -0.00155  -0.00136  -2.09404
   D21        2.09248   0.00200   0.00000   0.01042   0.01030   2.10278
   D22        3.14146   0.00010   0.00000   0.00960   0.00918  -3.13255
   D23        1.04890  -0.00074   0.00000  -0.01109  -0.01119   1.03771
   D24       -1.04913   0.00122   0.00000   0.00088   0.00048  -1.04865
   D25        0.77924  -0.00196   0.00000  -0.01194  -0.01195   0.76730
   D26        0.49266  -0.00591   0.00000  -0.02807  -0.02745   0.46521
   D27        1.28943  -0.01284   0.00000  -0.03389  -0.03367   1.25575
   D28        1.55830  -0.00893   0.00000  -0.01669  -0.01735   1.54095
   D29       -1.30431   0.01302   0.00000   0.03568   0.03552  -1.26879
   D30       -1.59090   0.00907   0.00000   0.01955   0.02002  -1.57088
   D31       -0.79413   0.00215   0.00000   0.01373   0.01379  -0.78033
   D32       -0.52526   0.00605   0.00000   0.03093   0.03012  -0.49514
   D33        2.87904   0.00556   0.00000   0.01210   0.01199   2.89103
   D34        2.59245   0.00161   0.00000  -0.00403  -0.00351   2.58894
   D35       -2.89396  -0.00532   0.00000  -0.00985  -0.00974  -2.90370
   D36       -2.62509  -0.00142   0.00000   0.00735   0.00659  -2.61850
   D37       -0.31514  -0.00379   0.00000  -0.02812  -0.02697  -0.34211
   D38       -2.47090  -0.00205   0.00000  -0.01219  -0.01124  -2.48214
   D39        0.43078   0.00328   0.00000   0.02521   0.02405   0.45484
   D40        2.50498   0.00243   0.00000   0.01004   0.00898   2.51396
   D41       -2.73776  -0.01251   0.00000  -0.10193  -0.10231  -2.84007
   D42       -0.02992   0.00084   0.00000   0.00556   0.00572  -0.02420
   D43        0.02879  -0.00050   0.00000  -0.00591  -0.00620   0.02259
   D44        2.73663   0.01285   0.00000   0.10159   0.10183   2.83846
         Item               Value     Threshold  Converged?
 Maximum Force            0.079256     0.000450     NO 
 RMS     Force            0.015328     0.000300     NO 
 Maximum Displacement     0.196271     0.001800     NO 
 RMS     Displacement     0.043402     0.001200     NO 
 Predicted change in Energy=-2.964550D-02
 GradGradGradGradGradGradGradGradGradGradGradGradGradGradGradGradGradGrad

                          Input orientation:                          
 ---------------------------------------------------------------------
 Center     Atomic      Atomic             Coordinates (Angstroms)
 Number     Number       Type             X           Y           Z
 ---------------------------------------------------------------------
      1          6           0        1.933554   -1.359264    0.034852
      2          6           0        3.308395   -1.322216    0.014792
      3          6           0        3.738508    0.069768    0.018023
      4          6           0        2.624186    0.875866    0.039587
      5          1           0        1.285359   -2.226257    0.040494
      6          1           0        3.964478   -2.181335    0.003579
      7          1           0        4.764882    0.409071    0.009413
      8          1           0        2.577907    1.957346    0.048719
      9          6           0        1.435890    0.018812    0.034518
     10          1           0        0.807307    0.213822   -0.842329
     11          1           0        0.834976    0.205212    0.922867
     12          6           0        2.221154   -0.957493    3.297653
     13          1           0        2.992119   -1.710308    3.414328
     14          1           0        1.191997   -1.253157    3.441932
     15          6           0        2.572928    0.349454    3.296927
     16          1           0        1.828836    1.117497    3.462134
     17          1           0        3.615053    0.611423    3.435927
 ---------------------------------------------------------------------
                    Distance matrix (angstroms):
                    1          2          3          4          5
     1  C    0.000000
     2  C    1.375486   0.000000
     3  C    2.302232   1.456924   0.000000
     4  C    2.339402   2.302243   1.375490   0.000000
     5  H    1.082527   2.215993   3.360085   3.378702   0.000000
     6  H    2.191217   1.081044   2.262462   3.338287   2.679750
     7  H    3.338275   2.262464   1.081039   2.191207   4.364975
     8  H    3.378651   3.360103   2.216052   1.082508   4.378730
     9  C    1.465184   2.303264   2.303241   1.465133   2.250118
    10  H    2.124260   3.057697   3.058250   2.125354   2.638540
    11  H    2.107850   3.045560   3.044271   2.105049   2.625542
    12  C    3.300000   3.477397   3.756807   3.760138   3.618640
    13  H    3.558743   3.436203   3.906489   4.267616   3.816017
    14  H    3.488461   4.028548   4.467438   4.261439   3.539127
    15  C    3.737599   3.756035   3.491133   3.300000   4.347007
    16  H    4.229843   4.474982   4.075106   3.522044   4.814943
    17  H    4.275319   3.941721   3.462760   3.547799   5.000886
                    6          7          8          9         10
     6  H    0.000000
     7  H    2.711252   0.000000
     8  H    4.365008   2.679843   0.000000
     9  C    3.351919   3.351884   2.249960   0.000000
    10  H    4.052168   4.052899   2.639861   1.096360   0.000000
    11  H    4.041594   4.039817   2.621434   1.088580   1.765434
    12  C    3.922740   4.376137   4.379399   3.495406   4.528840
    13  H    3.577787   4.384964   4.995056   4.103027   5.157015
    14  H    4.513362   5.225964   4.872574   3.645252   4.544767
    15  C    4.380347   3.951704   3.624389   3.470662   4.502138
    16  H    5.234965   4.587321   3.594142   3.620783   4.515368
    17  H    4.438762   3.619952   3.789507   4.082833   5.132738
                   11         12         13         14         15
    11  H    0.000000
    12  C    2.985462   0.000000
    13  H    3.811806   1.083849   0.000000
    14  H    2.932575   1.080462   1.857469   0.000000
    15  C    2.945750   1.353461   2.105260   2.120462   0.000000
    16  H    2.875395   2.118148   3.058103   2.454785   1.082061
    17  H    3.769523   2.103229   2.403944   3.057433   1.083500
                   16         17
    16  H    0.000000
    17  H    1.856709   0.000000
 Stoichiometry    C7H10
 Framework group  C1[X(C7H10)]
 Deg. of freedom    45
 Full point group                 C1      NOp   1
 Largest Abelian subgroup         C1      NOp   1
 Largest concise Abelian subgroup C1      NOp   1
                         Standard orientation:                         
 ---------------------------------------------------------------------
 Center     Atomic      Atomic             Coordinates (Angstroms)
 Number     Number       Type             X           Y           Z
 ---------------------------------------------------------------------
      1          6           0       -0.975430    1.158408   -0.375665
      2          6           0       -1.102866    0.769142    0.937420
      3          6           0       -1.114621   -0.686625    0.994281
      4          6           0       -0.994755   -1.179134   -0.284406
      5          1           0       -0.930621    2.162886   -0.776765
      6          1           0       -1.177152    1.430670    1.789193
      7          1           0       -1.199203   -1.278427    1.894982
      8          1           0       -0.967417   -2.212364   -0.606138
      9          6           0       -0.918085   -0.045268   -1.209115
     10          1           0       -1.740161   -0.065754   -1.934219
     11          1           0        0.017136   -0.077206   -1.765306
     12          6           0        2.259846    0.672802    0.056979
     13          1           0        2.305457    1.201142    1.002233
     14          1           0        2.480475    1.222177   -0.846852
     15          6           0        2.249150   -0.680613    0.059922
     16          1           0        2.482621   -1.232600   -0.840998
     17          1           0        2.309427   -1.202793    1.007375
 ---------------------------------------------------------------------
 Rotational constants (GHZ):           3.6952675           1.8276844           1.7337144
 Standard basis: 3-21G (6D, 7F)
 There are    83 symmetry adapted cartesian basis functions of A   symmetry.
 There are    83 symmetry adapted basis functions of A   symmetry.
    83 basis functions,   135 primitive gaussians,    83 cartesian basis functions
    26 alpha electrons       26 beta electrons
       nuclear repulsion energy       273.3765151902 Hartrees.
 NAtoms=   17 NActive=   17 NUniq=   17 SFac= 1.00D+00 NAtFMM=   60 NAOKFM=F Big=F
 Integral buffers will be    131072 words long.
 Raffenetti 2 integral format.
 Two-electron integral symmetry is turned on.
 One-electron integrals computed using PRISM.
 NBasis=    83 RedAO= T EigKep=  4.41D-03  NBF=    83
 NBsUse=    83 1.00D-06 EigRej= -1.00D+00 NBFU=    83
 Initial guess from the checkpoint file:  "C3.chk"
 B after Tr=    -0.000000   -0.000000    0.000000
         Rot=    0.999974   -0.004204    0.005720   -0.001325 Ang=  -0.83 deg.
 ExpMin= 1.83D-01 ExpMax= 1.72D+02 ExpMxC= 1.72D+02 IAcc=3 IRadAn=         5 AccDes= 0.00D+00
 Harris functional with IExCor=  402 and IRadAn=       5 diagonalized for initial guess.
 HarFok:  IExCor=  402 AccDes= 0.00D+00 IRadAn=         5 IDoV= 1 UseB2=F ITyADJ=14
 ICtDFT=  3500011 ScaDFX=  1.000000  1.000000  1.000000  1.000000
 FoFCou: FMM=F IPFlag=           0 FMFlag=      100000 FMFlg1=           0
         NFxFlg=           0 DoJE=T BraDBF=F KetDBF=T FulRan=T
         wScrn=  0.000000 ICntrl=       500 IOpCl=  0 I1Cent=   200000004 NGrid=           0
         NMat0=    1 NMatS0=      1 NMatT0=    0 NMatD0=    1 NMtDS0=    0 NMtDT0=    0
 Petite list used in FoFCou.
 Keep R1 ints in memory in canonical form, NReq=7891734.
 Requested convergence on RMS density matrix=1.00D-08 within 128 cycles.
 Requested convergence on MAX density matrix=1.00D-06.
 Requested convergence on             energy=1.00D-06.
 No special actions if energy rises.
 Integral accuracy reduced to 1.0D-05 until final iterations.
 Initial convergence to 1.0D-05 achieved.  Increase integral accuracy.
 SCF Done:  E(RB3LYP) =  -271.187429507     A.U. after   12 cycles
            NFock= 12  Conv=0.96D-08     -V/T= 2.0089
 Calling FoFJK, ICntrl=      2127 FMM=F ISym2X=0 I1Cent= 0 IOpClX= 0 NMat=1 NMatS=1 NMatT=0.
 ***** Axes restored to original set *****
 -------------------------------------------------------------------
 Center     Atomic                   Forces (Hartrees/Bohr)
 Number     Number              X              Y              Z
 -------------------------------------------------------------------
      1        6           0.028395745   -0.022883678   -0.001452294
      2        6          -0.019511770   -0.011309707   -0.000546767
      3        6          -0.009739504    0.020403544   -0.000553254
      4        6           0.036559030    0.002854653   -0.001624393
      5        1           0.003220769    0.000027644   -0.000307750
      6        1           0.000851073    0.000878521    0.000122415
      7        1           0.000211045   -0.001212190    0.000152374
      8        1           0.002652780   -0.001829721   -0.000256781
      9        6          -0.031772546    0.009798886   -0.001729596
     10        1          -0.003642058    0.001209443   -0.001973656
     11        1          -0.006368725    0.001733650    0.005120601
     12        6           0.010388094    0.027385436    0.015071175
     13        1          -0.002435464   -0.004435809   -0.007709002
     14        1          -0.003259298   -0.004066912   -0.006795583
     15        6          -0.006031205   -0.028724937    0.018687188
     16        1          -0.000177225    0.004863515   -0.007617827
     17        1           0.000659259    0.005307664   -0.008586848
 -------------------------------------------------------------------
 Cartesian Forces:  Max     0.036559030 RMS     0.012174280

 GradGradGradGradGradGradGradGradGradGradGradGradGradGradGradGradGradGrad
 Berny optimization.
 Using GEDIIS/GDIIS optimizer.
 FormGI is forming the generalized inverse of G from B-inverse, IUseBI=4.
 Internal  Forces:  Max     0.026035475 RMS     0.005608449
 Search for a local minimum.
 Step number   2 out of a maximum of  102
 All quantities printed in internal units (Hartrees-Bohrs-Radians)
 Mixed Optimization -- RFO/linear search
 Update second derivatives using D2CorX and points    1    2
 DE= -3.11D-02 DEPred=-2.96D-02 R= 1.05D+00
 TightC=F SS=  1.41D+00  RLast= 3.45D-01 DXNew= 5.0454D-01 1.0362D+00
 Trust test= 1.05D+00 RLast= 3.45D-01 DXMaxT set to 5.05D-01
 ITU=  1  0
 Use linear search instead of GDIIS.
     Eigenvalues ---    0.00828   0.01418   0.01435   0.01793   0.01911
     Eigenvalues ---    0.01927   0.02135   0.02141   0.02179   0.02294
     Eigenvalues ---    0.02518   0.04091   0.04233   0.04732   0.05205
     Eigenvalues ---    0.07199   0.08001   0.09369   0.09607   0.13867
     Eigenvalues ---    0.14449   0.15934   0.15998   0.16000   0.16116
     Eigenvalues ---    0.17014   0.21998   0.31063   0.34885   0.34900
     Eigenvalues ---    0.35178   0.35389   0.35419   0.35487   0.35707
     Eigenvalues ---    0.35820   0.36153   0.37609   0.39254   0.40534
     Eigenvalues ---    0.40951   0.46511   0.471881000.000001000.00000
     Eigenvalues --- 1000.000001000.000001000.000001000.000001000.00000
     Eigenvalues --- 1000.000001000.000001000.000001000.000001000.00000
     Eigenvalues --- 1000.000001000.000001000.000001000.000001000.00000
     Eigenvalues --- 1000.000001000.000001000.000001000.000001000.00000
     Eigenvalues --- 1000.000001000.000001000.000001000.000001000.00000
     Eigenvalues --- 1000.000001000.000001000.000001000.000001000.00000
     Eigenvalues --- 1000.000001000.000001000.000001000.000001000.00000
     Eigenvalues --- 1000.000001000.000001000.000001000.000001000.00000
     Eigenvalues --- 1000.000001000.000001000.000001000.000001000.00000
     Eigenvalues --- 1000.000001000.000001000.000001000.000001000.00000
     Eigenvalues --- 1000.000001000.000001000.000001000.00000
 RFO step:  Lambda=-1.04400684D-02 EMin= 8.28165610D-03
 Quartic linear search produced a step of  0.73624.
 Iteration  1 RMS(Cart)=  0.04736908 RMS(Int)=  0.01774098
 Iteration  2 RMS(Cart)=  0.01363263 RMS(Int)=  0.00556826
 Iteration  3 RMS(Cart)=  0.00037371 RMS(Int)=  0.00555406
 Iteration  4 RMS(Cart)=  0.00000380 RMS(Int)=  0.00555406
 Iteration  5 RMS(Cart)=  0.00000005 RMS(Int)=  0.00555406
 Iteration  1 RMS(Cart)=  0.00019271 RMS(Int)=  0.00004340
 Iteration  2 RMS(Cart)=  0.00002725 RMS(Int)=  0.00004612
 Iteration  3 RMS(Cart)=  0.00000505 RMS(Int)=  0.00004714
 Iteration  4 RMS(Cart)=  0.00000108 RMS(Int)=  0.00004736
 Iteration  5 RMS(Cart)=  0.00000024 RMS(Int)=  0.00004741
 Variable       Old X    -DE/DX   Delta X   Delta X   Delta X     New X
                                 (Linear)    (Quad)   (Total)
    R1        2.59929  -0.01513  -0.03654  -0.01807  -0.05479   2.54450
    R2        2.04568  -0.00195  -0.00938   0.00155  -0.00782   2.03786
    R3        2.76880   0.02598   0.10210  -0.01343   0.08902   2.85782
    R4        6.23610   0.00379   0.00000   0.00000  -0.00000   6.23610
    R5        2.75319   0.01180   0.03068  -0.00256   0.02754   2.78072
    R6        2.04288  -0.00018  -0.00525   0.00520  -0.00006   2.04282
    R7        2.59930  -0.01519  -0.03667  -0.01815  -0.05502   2.54428
    R8        2.04287  -0.00018  -0.00525   0.00520  -0.00005   2.04282
    R9        2.04564  -0.00194  -0.00935   0.00157  -0.00778   2.03786
   R10        2.76870   0.02604   0.10202  -0.01310   0.08935   2.85805
   R11        6.23610   0.00424  -0.00000   0.00000   0.00000   6.23610
   R12        2.07182   0.00388   0.03667  -0.02490   0.01177   2.08359
   R13        2.05712   0.00472   0.02585  -0.01005   0.01458   2.07169
   R14        5.64171  -0.00130  -0.00327   0.05894   0.05476   5.69646
   R15        5.54176  -0.00225  -0.04605  -0.21564  -0.26427   5.27749
   R16        5.56666  -0.00055   0.00341   0.07839   0.07884   5.64550
   R17        5.43371  -0.00252  -0.04687  -0.21225  -0.26027   5.17344
   R18        2.04818   0.00052  -0.00041   0.00290   0.00248   2.05066
   R19        2.04178   0.00387   0.02334  -0.01162   0.01789   2.05967
   R20        2.55767  -0.01544  -0.07185   0.01385  -0.05499   2.50268
   R21        2.04480   0.00293   0.01855  -0.01008   0.01544   2.06024
   R22        2.04752   0.00082   0.00175   0.00176   0.00351   2.05103
    A1        2.23973  -0.00265  -0.02275  -0.01128  -0.03414   2.20559
    A2        1.89037   0.00004  -0.00138   0.02628   0.02500   1.91537
    A3        2.15304   0.00261   0.02410  -0.01509   0.00885   2.16190
    A4        1.89735   0.00477   0.01957  -0.01142   0.00734   1.90469
    A5        2.19612  -0.00115  -0.00787   0.01574   0.00825   2.20437
    A6        2.18970  -0.00362  -0.01171  -0.00434  -0.01568   2.17402
    A7        1.89736   0.00475   0.01960  -0.01163   0.00714   1.90450
    A8        2.18971  -0.00361  -0.01171  -0.00431  -0.01564   2.17407
    A9        2.19610  -0.00113  -0.00790   0.01591   0.00841   2.20451
   A10        2.23986  -0.00267  -0.02284  -0.01135  -0.03428   2.20559
   A11        1.89039   0.00006  -0.00131   0.02636   0.02514   1.91553
   A12        2.15288   0.00261   0.02412  -0.01509   0.00887   2.16175
   A13        1.84908  -0.00961  -0.03664  -0.02983  -0.06555   1.78353
   A14        1.94144   0.00269   0.02054   0.00697   0.02815   1.96959
   A15        1.92662   0.00401   0.00959  -0.00012   0.00783   1.93445
   A16        1.94306   0.00279   0.02169   0.00670   0.02844   1.97150
   A17        1.92274   0.00376   0.00676  -0.00082   0.00567   1.92841
   A18        1.88149  -0.00343  -0.02145   0.01649  -0.00487   1.87663
   A19        1.90302  -0.00227  -0.01055  -0.00573  -0.01424   1.88878
   A20        2.15153  -0.00291  -0.01486  -0.02771  -0.04284   2.10868
   A21        1.91813  -0.00230  -0.01053  -0.00597  -0.01431   1.90381
   A22        2.19468  -0.00309  -0.01525  -0.02951  -0.04592   2.14876
   A23        0.73864  -0.00073  -0.00034   0.01421   0.00851   0.74715
   A24        0.73808  -0.00077  -0.00050   0.01343   0.00837   0.74645
   A25        0.87254   0.00176   0.01544   0.05109   0.05765   0.93019
   A26        2.32734  -0.00655  -0.03428  -0.05040  -0.08352   2.24381
   A27        2.06361  -0.00381  -0.01194  -0.01090  -0.04657   2.01704
   A28        2.07817   0.00122   0.00950   0.04858   0.05739   2.13556
   A29        2.10817   0.00503   0.02394   0.01690   0.02237   2.13053
   A30        2.32223  -0.00721  -0.03776  -0.05747  -0.09234   2.22989
   A31        2.10202   0.00562   0.02699   0.02327   0.02740   2.12942
   A32        2.07531   0.00159   0.01228   0.05303   0.06057   2.13588
   A33        2.06031  -0.00394  -0.01074  -0.00403  -0.04243   2.01788
    D1       -3.13920  -0.00037   0.00168  -0.00313  -0.00036  -3.13956
    D2       -0.00262  -0.00029  -0.00200  -0.00857  -0.01018  -0.01281
    D3        0.01235  -0.00012   0.00909   0.00660   0.01655   0.02890
    D4       -3.13426  -0.00003   0.00541   0.00116   0.00673  -3.12753
    D5       -0.01910   0.00035  -0.01411  -0.01017  -0.02406  -0.04316
    D6        2.09487  -0.00075   0.00163  -0.01676  -0.01563   2.07924
    D7       -2.10044  -0.00065  -0.00585   0.00835   0.00243  -2.09802
    D8        3.13184   0.00062  -0.00716  -0.00104  -0.00736   3.12448
    D9       -1.03737  -0.00047   0.00858  -0.00764   0.00107  -1.03630
   D10        1.05050  -0.00038   0.00111   0.01748   0.01913   1.06963
   D11       -0.00035  -0.00002  -0.00020   0.00011  -0.00002  -0.00037
   D12        3.13680   0.00009  -0.00355  -0.00622  -0.01036   3.12644
   D13       -3.13695  -0.00011   0.00346   0.00545   0.00951  -3.12744
   D14        0.00020  -0.00000   0.00011  -0.00088  -0.00083  -0.00063
   D15        3.14027   0.00042  -0.00108   0.00213  -0.00030   3.13996
   D16       -0.01180   0.00014  -0.00878  -0.00676  -0.01652  -0.02832
   D17        0.00314   0.00031   0.00229   0.00856   0.01034   0.01348
   D18        3.13425   0.00004  -0.00541  -0.00033  -0.00587   3.12838
   D19        0.01889  -0.00036   0.01399   0.01024   0.02405   0.04293
   D20       -2.09404   0.00082  -0.00100   0.01669   0.01589  -2.07816
   D21        2.10278   0.00084   0.00758  -0.00772  -0.00068   2.10210
   D22       -3.13255  -0.00066   0.00676   0.00190   0.00801  -3.12454
   D23        1.03771   0.00052  -0.00824   0.00835  -0.00015   1.03756
   D24       -1.04865   0.00054   0.00035  -0.01606  -0.01672  -1.06537
   D25        0.76730  -0.00185  -0.00879  -0.01216  -0.02152   0.74578
   D26        0.46521  -0.00336  -0.02021  -0.03317  -0.04768   0.41753
   D27        1.25575  -0.00518  -0.02479  -0.01649  -0.04024   1.21551
   D28        1.54095  -0.00356  -0.01277   0.00898  -0.01022   1.53073
   D29       -1.26879   0.00524   0.02615   0.02488   0.05032  -1.21846
   D30       -1.57088   0.00374   0.01474   0.00386   0.02417  -1.54671
   D31       -0.78033   0.00191   0.01016   0.02055   0.03160  -0.74873
   D32       -0.49514   0.00354   0.02218   0.04601   0.06162  -0.43352
   D33        2.89103   0.00171   0.00883   0.00679   0.01494   2.90597
   D34        2.58894   0.00020  -0.00259  -0.01423  -0.01122   2.57772
   D35       -2.90370  -0.00162  -0.00717   0.00246  -0.00378  -2.90748
   D36       -2.61850   0.00001   0.00485   0.02793   0.02623  -2.59227
   D37       -0.34211  -0.00292  -0.01986  -0.06956  -0.08127  -0.42338
   D38       -2.48214  -0.00092  -0.00828  -0.02693  -0.02530  -2.50744
   D39        0.45484   0.00265   0.01771   0.05395   0.06336   0.51820
   D40        2.51396   0.00085   0.00661   0.01642   0.01332   2.52729
   D41       -2.84007  -0.00991  -0.07532  -0.23876  -0.31263   3.13048
   D42       -0.02420   0.00070   0.00421   0.01126   0.01603  -0.00817
   D43        0.02259  -0.00053  -0.00456  -0.01646  -0.02202   0.00057
   D44        2.83846   0.01007   0.07497   0.23355   0.30664  -3.13808
         Item               Value     Threshold  Converged?
 Maximum Force            0.025949     0.000450     NO 
 RMS     Force            0.005633     0.000300     NO 
 Maximum Displacement     0.287310     0.001800     NO 
 RMS     Displacement     0.057945     0.001200     NO 
 Predicted change in Energy=-9.651599D-03
 GradGradGradGradGradGradGradGradGradGradGradGradGradGradGradGradGradGrad

                          Input orientation:                          
 ---------------------------------------------------------------------
 Center     Atomic      Atomic             Coordinates (Angstroms)
 Number     Number       Type             X           Y           Z
 ---------------------------------------------------------------------
      1          6           0        1.947526   -1.374038    0.070226
      2          6           0        3.292836   -1.327358    0.038619
      3          6           0        3.726927    0.078624    0.047399
      4          6           0        2.641899    0.874937    0.083796
      5          1           0        1.338450   -2.263942    0.074451
      6          1           0        3.962485   -2.175854    0.023928
      7          1           0        4.758390    0.402088    0.040588
      8          1           0        2.640263    1.953207    0.099844
      9          6           0        1.387286    0.030626    0.061672
     10          1           0        0.748994    0.231657   -0.814610
     11          1           0        0.784471    0.215480    0.958500
     12          6           0        2.241355   -0.944445    3.328924
     13          1           0        2.974990   -1.743840    3.347069
     14          1           0        1.199631   -1.262782    3.291248
     15          6           0        2.585974    0.334255    3.338721
     16          1           0        1.844317    1.132835    3.310096
     17          1           0        3.621736    0.656794    3.372946
 ---------------------------------------------------------------------
                    Distance matrix (angstroms):
                    1          2          3          4          5
     1  C    0.000000
     2  C    1.346491   0.000000
     3  C    2.297176   1.471495   0.000000
     4  C    2.353769   2.296925   1.346375   0.000000
     5  H    1.078387   2.167509   3.345619   3.398768   0.000000
     6  H    2.169127   1.081014   2.266872   3.324885   2.625999
     7  H    3.325126   2.266900   1.081014   2.169099   4.336456
     8  H    3.398724   3.345401   2.167406   1.078391   4.413582
     9  C    1.512291   2.340037   2.340177   1.512417   2.295123
    10  H    2.190359   3.103170   3.103960   2.191811   2.714020
    11  H    2.160624   3.085195   3.083323   2.156392   2.689975
    12  C    3.300000   3.475391   3.744596   3.741850   3.626004
    13  H    3.454003   3.349675   3.843775   4.197367   3.695781
    14  H    3.308581   3.868498   4.325408   4.115546   3.371851
    15  C    3.742852   3.761819   3.492839   3.300000   4.354584
    16  H    4.097783   4.342041   3.911620   3.333415   4.718410
    17  H    4.223177   3.893940   3.377071   3.438920   4.962274
                    6          7          8          9         10
     6  H    0.000000
     7  H    2.698060   0.000000
     8  H    4.336263   2.626013   0.000000
     9  C    3.391405   3.391574   2.295153   0.000000
    10  H    4.101925   4.103130   2.716038   1.102588   0.000000
    11  H    4.085545   4.082820   2.683459   1.096293   1.773539
    12  C    3.924494   4.354511   4.356888   3.514987   4.558425
    13  H    3.493572   4.326470   4.932004   4.057508   5.116368
    14  H    4.375208   5.099348   4.754268   3.484004   4.392550
    15  C    4.379872   3.949895   3.621364   3.502584   4.542597
    16  H    5.121812   4.440214   3.407676   3.460636   4.361772
    17  H    4.399537   3.530081   3.654746   4.043438   5.095981
                   11         12         13         14         15
    11  H    0.000000
    12  C    3.014439   0.000000
    13  H    3.787158   1.085164   0.000000
    14  H    2.792727   1.089930   1.840226   0.000000
    15  C    2.987469   1.324361   2.114209   2.115355   0.000000
    16  H    2.737666   2.114967   3.091124   2.480918   1.090232
    17  H    3.751583   2.114558   2.486362   3.091608   1.085359
                   16         17
    16  H    0.000000
    17  H    1.841136   0.000000
 Stoichiometry    C7H10
 Framework group  C1[X(C7H10)]
 Deg. of freedom    45
 Full point group                 C1      NOp   1
 Largest Abelian subgroup         C1      NOp   1
 Largest concise Abelian subgroup C1      NOp   1
                         Standard orientation:                         
 ---------------------------------------------------------------------
 Center     Atomic      Atomic             Coordinates (Angstroms)
 Number     Number       Type             X           Y           Z
 ---------------------------------------------------------------------
      1          6           0       -0.972882    1.164371   -0.345365
      2          6           0       -1.097254    0.768924    0.935725
      3          6           0       -1.095274   -0.701610    0.988860
      4          6           0       -0.970187   -1.187862   -0.260395
      5          1           0       -0.941111    2.182200   -0.700236
      6          1           0       -1.172652    1.413717    1.800103
      7          1           0       -1.168459   -1.282579    1.897546
      8          1           0       -0.936095   -2.228511   -0.541135
      9          6           0       -0.919014   -0.045841   -1.250633
     10          1           0       -1.745278   -0.071871   -1.980230
     11          1           0        0.020548   -0.069116   -1.815026
     12          6           0        2.264173    0.666413    0.059004
     13          1           0        2.217893    1.247065    0.974582
     14          1           0        2.293786    1.245196   -0.864078
     15          6           0        2.271273   -0.657929    0.059143
     16          1           0        2.307646   -1.235683   -0.864698
     17          1           0        2.238704   -1.239210    0.975143
 ---------------------------------------------------------------------
 Rotational constants (GHZ):           3.6580219           1.8381379           1.7445189
 Standard basis: 3-21G (6D, 7F)
 There are    83 symmetry adapted cartesian basis functions of A   symmetry.
 There are    83 symmetry adapted basis functions of A   symmetry.
    83 basis functions,   135 primitive gaussians,    83 cartesian basis functions
    26 alpha electrons       26 beta electrons
       nuclear repulsion energy       273.2646787336 Hartrees.
 NAtoms=   17 NActive=   17 NUniq=   17 SFac= 1.00D+00 NAtFMM=   60 NAOKFM=F Big=F
 Integral buffers will be    131072 words long.
 Raffenetti 2 integral format.
 Two-electron integral symmetry is turned on.
 One-electron integrals computed using PRISM.
 NBasis=    83 RedAO= T EigKep=  4.42D-03  NBF=    83
 NBsUse=    83 1.00D-06 EigRej= -1.00D+00 NBFU=    83
 Initial guess from the checkpoint file:  "C3.chk"
 B after Tr=     0.000000   -0.000000   -0.000000
         Rot=    0.999993   -0.001517   -0.002042   -0.002614 Ang=  -0.42 deg.
 ExpMin= 1.83D-01 ExpMax= 1.72D+02 ExpMxC= 1.72D+02 IAcc=3 IRadAn=         5 AccDes= 0.00D+00
 Harris functional with IExCor=  402 and IRadAn=       5 diagonalized for initial guess.
 HarFok:  IExCor=  402 AccDes= 0.00D+00 IRadAn=         5 IDoV= 1 UseB2=F ITyADJ=14
 ICtDFT=  3500011 ScaDFX=  1.000000  1.000000  1.000000  1.000000
 FoFCou: FMM=F IPFlag=           0 FMFlag=      100000 FMFlg1=           0
         NFxFlg=           0 DoJE=T BraDBF=F KetDBF=T FulRan=T
         wScrn=  0.000000 ICntrl=       500 IOpCl=  0 I1Cent=   200000004 NGrid=           0
         NMat0=    1 NMatS0=      1 NMatT0=    0 NMatD0=    1 NMtDS0=    0 NMtDT0=    0
 Petite list used in FoFCou.
 Keep R1 ints in memory in canonical form, NReq=7891734.
 Requested convergence on RMS density matrix=1.00D-08 within 128 cycles.
 Requested convergence on MAX density matrix=1.00D-06.
 Requested convergence on             energy=1.00D-06.
 No special actions if energy rises.
 Integral accuracy reduced to 1.0D-05 until final iterations.
 Initial convergence to 1.0D-05 achieved.  Increase integral accuracy.
 SCF Done:  E(RB3LYP) =  -271.196867457     A.U. after   13 cycles
            NFock= 13  Conv=0.87D-08     -V/T= 2.0090
 Calling FoFJK, ICntrl=      2127 FMM=F ISym2X=0 I1Cent= 0 IOpClX= 0 NMat=1 NMatS=1 NMatT=0.
 ***** Axes restored to original set *****
 -------------------------------------------------------------------
 Center     Atomic                   Forces (Hartrees/Bohr)
 Number     Number              X              Y              Z
 -------------------------------------------------------------------
      1        6          -0.004116335   -0.006337976   -0.004300086
      2        6           0.003428483   -0.002717334   -0.000022287
      3        6           0.004368948    0.000309090   -0.000069643
      4        6           0.000314131    0.007636702   -0.004678038
      5        1          -0.001719735   -0.000922000   -0.000214397
      6        1           0.000227324    0.000131143    0.000149130
      7        1           0.000106487   -0.000251856    0.000168085
      8        1          -0.000910848    0.001729032   -0.000156877
      9        6          -0.003134541    0.001157126    0.003460257
     10        1           0.003144323   -0.000869710    0.000902676
     11        1          -0.001002487   -0.000060166    0.001070406
     12        6          -0.004576944   -0.007334991    0.001082273
     13        1           0.000374896    0.000609020    0.000074874
     14        1           0.002333232    0.001078798    0.000461715
     15        6          -0.000356995    0.008722636    0.001875188
     16        1           0.001648540   -0.002138317    0.000591733
     17        1          -0.000128477   -0.000741196   -0.000395009
 -------------------------------------------------------------------
 Cartesian Forces:  Max     0.008722636 RMS     0.002836131

 GradGradGradGradGradGradGradGradGradGradGradGradGradGradGradGradGradGrad
 Berny optimization.
 Using GEDIIS/GDIIS optimizer.
 FormGI is forming the generalized inverse of G from B-inverse, IUseBI=4.
 Internal  Forces:  Max     0.005628356 RMS     0.001510353
 Search for a local minimum.
 Step number   3 out of a maximum of  102
 All quantities printed in internal units (Hartrees-Bohrs-Radians)
 Mixed Optimization -- RFO/linear search
 Update second derivatives using D2CorX and points    2    3
 DE= -9.44D-03 DEPred=-9.65D-03 R= 9.78D-01
 TightC=F SS=  1.41D+00  RLast= 6.64D-01 DXNew= 8.4853D-01 1.9909D+00
 Trust test= 9.78D-01 RLast= 6.64D-01 DXMaxT set to 8.49D-01
 ITU=  1  1  0
 Use linear search instead of GDIIS.
     Eigenvalues ---    0.00851   0.01393   0.01421   0.01797   0.01915
     Eigenvalues ---    0.01928   0.02138   0.02144   0.02180   0.02478
     Eigenvalues ---    0.02555   0.04091   0.04193   0.04603   0.04944
     Eigenvalues ---    0.07231   0.08055   0.09299   0.10147   0.13964
     Eigenvalues ---    0.13979   0.15909   0.15989   0.15997   0.16134
     Eigenvalues ---    0.17454   0.21990   0.31128   0.33950   0.34820
     Eigenvalues ---    0.34899   0.34959   0.35419   0.35455   0.35513
     Eigenvalues ---    0.35729   0.36044   0.37337   0.37978   0.40527
     Eigenvalues ---    0.41618   0.46477   0.471161000.000001000.00000
     Eigenvalues --- 1000.000001000.000001000.000001000.000001000.00000
     Eigenvalues --- 1000.000001000.000001000.000001000.000001000.00000
     Eigenvalues --- 1000.000001000.000001000.000001000.000001000.00000
     Eigenvalues --- 1000.000001000.000001000.000001000.000001000.00000
     Eigenvalues --- 1000.000001000.000001000.000001000.000001000.00000
     Eigenvalues --- 1000.000001000.000001000.000001000.000001000.00000
     Eigenvalues --- 1000.000001000.000001000.000001000.000001000.00000
     Eigenvalues --- 1000.000001000.000001000.000001000.000001000.00000
     Eigenvalues --- 1000.000001000.000001000.000001000.000001000.00000
     Eigenvalues --- 1000.000001000.000001000.000001000.000001000.00000
     Eigenvalues --- 1000.000001000.000001000.000001000.00000
 RFO step:  Lambda=-7.91487484D-04 EMin= 8.50595257D-03
 Quartic linear search produced a step of -0.06283.
 Iteration  1 RMS(Cart)=  0.01214447 RMS(Int)=  0.00030695
 Iteration  2 RMS(Cart)=  0.00016072 RMS(Int)=  0.00028777
 Iteration  3 RMS(Cart)=  0.00000002 RMS(Int)=  0.00028777
 Iteration  1 RMS(Cart)=  0.00000788 RMS(Int)=  0.00000170
 Iteration  2 RMS(Cart)=  0.00000103 RMS(Int)=  0.00000180
 Iteration  3 RMS(Cart)=  0.00000018 RMS(Int)=  0.00000184
 Variable       Old X    -DE/DX   Delta X   Delta X   Delta X     New X
                                 (Linear)    (Quad)   (Total)
    R1        2.54450   0.00500   0.00344   0.00595   0.00939   2.55389
    R2        2.03786   0.00173   0.00049   0.00397   0.00446   2.04232
    R3        2.85782   0.00473  -0.00559   0.01625   0.01067   2.86848
    R4        6.23610   0.00196   0.00000   0.00000  -0.00000   6.23610
    R5        2.78072   0.00439  -0.00173   0.01387   0.01213   2.79285
    R6        2.04282   0.00004   0.00000   0.00009   0.00010   2.04292
    R7        2.54428   0.00501   0.00346   0.00597   0.00942   2.55370
    R8        2.04282   0.00003   0.00000   0.00007   0.00007   2.04289
    R9        2.03786   0.00173   0.00049   0.00397   0.00446   2.04232
   R10        2.85805   0.00479  -0.00561   0.01641   0.01080   2.86886
   R11        6.23610   0.00224  -0.00000   0.00000   0.00000   6.23610
   R12        2.08359  -0.00270  -0.00074  -0.00578  -0.00652   2.07707
   R13        2.07169   0.00156  -0.00092   0.00444   0.00358   2.07528
   R14        5.69646  -0.00071  -0.00344  -0.04344  -0.04685   5.64962
   R15        5.27749   0.00049   0.01660  -0.01992  -0.00319   5.27430
   R16        5.64550  -0.00084  -0.00495  -0.03882  -0.04362   5.60188
   R17        5.17344   0.00052   0.01635  -0.01143   0.00499   5.17843
   R18        2.05066  -0.00019  -0.00016  -0.00030  -0.00045   2.05021
   R19        2.05967  -0.00253  -0.00112  -0.00551  -0.00694   2.05273
   R20        2.50268   0.00563   0.00345   0.00821   0.01151   2.51419
   R21        2.06024  -0.00266  -0.00097  -0.00616  -0.00747   2.05277
   R22        2.05103  -0.00036  -0.00022  -0.00063  -0.00085   2.05018
    A1        2.20559   0.00161   0.00214   0.00689   0.00904   2.21462
    A2        1.91537  -0.00141  -0.00157  -0.00663  -0.00821   1.90716
    A3        2.16190  -0.00019  -0.00056  -0.00013  -0.00069   2.16121
    A4        1.90469   0.00059  -0.00046   0.00402   0.00353   1.90822
    A5        2.20437  -0.00003  -0.00052   0.00060   0.00009   2.20446
    A6        2.17402  -0.00055   0.00099  -0.00456  -0.00356   2.17046
    A7        1.90450   0.00059  -0.00045   0.00400   0.00353   1.90802
    A8        2.17407  -0.00056   0.00098  -0.00462  -0.00363   2.17044
    A9        2.20451  -0.00002  -0.00053   0.00066   0.00015   2.20466
   A10        2.20559   0.00164   0.00215   0.00699   0.00914   2.21472
   A11        1.91553  -0.00143  -0.00158  -0.00668  -0.00827   1.90726
   A12        2.16175  -0.00020  -0.00056  -0.00015  -0.00071   2.16103
   A13        1.78353   0.00172   0.00412   0.00649   0.01035   1.79388
   A14        1.96959  -0.00136  -0.00177  -0.01554  -0.01734   1.95225
   A15        1.93445   0.00000  -0.00049   0.01073   0.01015   1.94460
   A16        1.97150  -0.00145  -0.00179  -0.01668  -0.01847   1.95303
   A17        1.92841   0.00017  -0.00036   0.01276   0.01229   1.94070
   A18        1.87663   0.00090   0.00031   0.00305   0.00348   1.88010
   A19        1.88878   0.00002   0.00089  -0.00384  -0.00302   1.88576
   A20        2.10868   0.00008   0.00269  -0.00035   0.00234   2.11103
   A21        1.90381   0.00001   0.00090  -0.00448  -0.00368   1.90014
   A22        2.14876  -0.00005   0.00289  -0.00282   0.00009   2.14885
   A23        0.74715   0.00043  -0.00053   0.00544   0.00517   0.75232
   A24        0.74645   0.00045  -0.00053   0.00531   0.00503   0.75148
   A25        0.93019  -0.00008  -0.00362   0.00447   0.00131   0.93150
   A26        2.24381  -0.00027   0.00525  -0.01176  -0.00656   2.23725
   A27        2.01704   0.00062   0.00293  -0.00034   0.00377   2.02081
   A28        2.13556   0.00020  -0.00361  -0.00088  -0.00446   2.13110
   A29        2.13053  -0.00082  -0.00141   0.00121   0.00074   2.13127
   A30        2.22989  -0.00044   0.00580  -0.01552  -0.00990   2.21999
   A31        2.12942  -0.00079  -0.00172   0.00146   0.00094   2.13036
   A32        2.13588   0.00026  -0.00381  -0.00119  -0.00479   2.13109
   A33        2.01788   0.00053   0.00267  -0.00029   0.00384   2.02172
    D1       -3.13956  -0.00049   0.00002  -0.00996  -0.00991   3.13372
    D2       -0.01281  -0.00019   0.00064  -0.00533  -0.00468  -0.01748
    D3        0.02890  -0.00066  -0.00104  -0.01514  -0.01616   0.01274
    D4       -3.12753  -0.00036  -0.00042  -0.01052  -0.01093  -3.13846
[...]
 ! A28   A(13,12,15)           121.3188         -DE/DX =    0.0001              !
 ! A29   A(14,12,15)           121.996          -DE/DX =   -0.0001              !
 ! A30   A(11,15,17)            78.0804         -DE/DX =    0.0                 !
 ! A31   A(12,15,16)           121.5893         -DE/DX =    0.0                 !
 ! A32   A(12,15,17)           121.5247         -DE/DX =    0.0                 !
 ! A33   A(16,15,17)           116.8826         -DE/DX =   -0.0001              !
 ! D1    D(5,1,2,3)            179.2834         -DE/DX =   -0.0001              !
 ! D2    D(5,1,2,6)             -0.9099         -DE/DX =    0.0                 !
 ! D3    D(9,1,2,3)              1.0395         -DE/DX =   -0.0001              !
 ! D4    D(9,1,2,6)           -179.1538         -DE/DX =    0.0                 !
 ! D5    D(2,1,9,4)             -1.8314         -DE/DX =    0.0002              !
 ! D6    D(2,1,9,10)           117.0525         -DE/DX =   -0.0001              !
 ! D7    D(2,1,9,11)          -121.6389         -DE/DX =   -0.0003              !
 ! D8    D(5,1,9,4)            179.8481         -DE/DX =    0.0002              !
 ! D9    D(5,1,9,10)           -61.2681         -DE/DX =   -0.0001              !
 ! D10   D(5,1,9,11)            60.0406         -DE/DX =   -0.0003              !
 ! D11   D(1,2,3,4)              0.303          -DE/DX =    0.0                 !
 ! D12   D(1,2,3,7)            179.8034         -DE/DX =    0.0001              !
 ! D13   D(6,2,3,4)           -179.5094         -DE/DX =   -0.0001              !
 ! D14   D(6,2,3,7)             -0.009          -DE/DX =    0.0                 !
 ! D15   D(2,3,4,8)           -179.8764         -DE/DX =    0.0001              !
 ! D16   D(2,3,4,9)             -1.5102         -DE/DX =    0.0001              !
 ! D17   D(7,3,4,8)              0.6381         -DE/DX =    0.0                 !
 ! D18   D(7,3,4,9)            179.0043         -DE/DX =    0.0001              !
 ! D19   D(3,4,9,1)              2.0211         -DE/DX =   -0.0002              !
 ! D20   D(3,4,9,10)          -116.9784         -DE/DX =    0.0                 !
 ! D21   D(3,4,9,11)           121.6003         -DE/DX =    0.0002              !
 ! D22   D(8,4,9,1)           -179.5429         -DE/DX =   -0.0002              !
 ! D23   D(8,4,9,10)            61.4576         -DE/DX =    0.0                 !
 ! D24   D(8,4,9,11)           -59.9637         -DE/DX =    0.0002              !
 ! D25   D(1,9,11,12)           33.9464         -DE/DX =    0.0                 !
 ! D26   D(1,9,11,14)           25.3727         -DE/DX =   -0.0001              !
 ! D27   D(1,9,11,15)           63.2502         -DE/DX =    0.0001              !
 ! D28   D(1,9,11,16)           78.6432         -DE/DX =    0.0002              !
 ! D29   D(4,9,11,12)          -80.304          -DE/DX =   -0.0002              !
 ! D30   D(4,9,11,14)          -88.8777         -DE/DX =   -0.0003              !
 ! D31   D(4,9,11,15)          -51.0002         -DE/DX =   -0.0001              !
 ! D32   D(4,9,11,16)          -35.6071         -DE/DX =    0.0                 !
 ! D33   D(10,9,11,12)         156.8175         -DE/DX =   -0.0001              !
 ! D34   D(10,9,11,14)         148.2438         -DE/DX =   -0.0002              !
 ! D35   D(10,9,11,15)        -173.8787         -DE/DX =    0.0                 !
 ! D36   D(10,9,11,16)        -158.4856         -DE/DX =    0.0001              !
 ! D37   D(9,11,12,13)         -38.209          -DE/DX =    0.0001              !
 ! D38   D(16,11,12,13)       -150.3746         -DE/DX =    0.0                 !
 ! D39   D(9,11,15,17)          20.1787         -DE/DX =   -0.0002              !
 ! D40   D(14,11,15,17)        148.9517         -DE/DX =    0.0001              !
 ! D41   D(13,12,15,16)       -179.5545         -DE/DX =    0.0                 !
 ! D42   D(13,12,15,17)          1.1344         -DE/DX =    0.0                 !
 ! D43   D(14,12,15,16)         -0.0454         -DE/DX =    0.0                 !
 ! D44   D(14,12,15,17)       -179.3565         -DE/DX =    0.0                 !
 --------------------------------------------------------------------------------
 GradGradGradGradGradGradGradGradGradGradGradGradGradGradGradGradGradGrad

                          Input orientation:                          
 ---------------------------------------------------------------------
 Center     Atomic      Atomic             Coordinates (Angstroms)
 Number     Number       Type             X           Y           Z
 ---------------------------------------------------------------------
      1          6           0        2.123618   -1.366474    0.153248
      2          6           0        3.466892   -1.249774    0.063463
      3          6           0        3.828121    0.183549   -0.022813
      4          6           0        2.702728    0.930004    0.021761
      5          1           0        1.551764   -2.280933    0.218986
      6          1           0        4.184687   -2.058182    0.057013
      7          1           0        4.842198    0.551004   -0.099897
      8          1           0        2.633919    2.007594   -0.021775
      9          6           0        1.493219    0.014866    0.105665
     10          1           0        0.848764    0.128746   -0.778202
     11          1           0        0.894353    0.213339    1.001594
     12          6           0        1.906820   -0.971279    3.422319
     13          1           0        2.169317   -1.821156    2.803838
     14          1           0        1.169841   -1.144337    4.202393
     15          6           0        2.470368    0.220355    3.236167
     16          1           0        2.215521    1.074301    3.858743
     17          1           0        3.195401    0.386618    2.450913
 ---------------------------------------------------------------------
                    Distance matrix (angstroms):
                    1          2          3          4          5
     1  C    0.000000
     2  C    1.351319   0.000000
     3  C    2.310605   1.480657   0.000000
     4  C    2.372017   2.310220   1.351182   0.000000
     5  H    1.080544   2.180640   3.363620   3.416684   0.000000
     6  H    2.176172   1.081108   2.271314   3.335671   2.647289
     7  H    3.336387   2.271774   1.081350   2.176183   4.352989
     8  H    3.416925   3.363266   2.180197   1.080662   4.429502
     9  C    1.519133   2.344457   2.344510   1.519022   2.299340
    10  H    2.174520   3.076250   3.074116   2.172357   2.700954
    11  H    2.174073   3.104634   3.107619   2.178050   2.695563
    12  C    3.300000   3.713933   4.110226   3.976448   3.478879
    13  H    2.689693   3.085423   3.841930   3.948843   2.697077
    14  H    4.165887   4.734797   5.165472   4.912262   4.159958
    15  C    3.484630   3.635986   3.530694   3.300000   4.025376
    16  H    4.438076   4.622922   4.296556   3.870482   4.994597
    17  H    3.082420   2.907130   2.561424   2.537474   3.846930
                    6          7          8          9         10
     6  H    0.000000
     7  H    2.695328   0.000000
     8  H    4.352198   2.646555   0.000000
     9  C    3.397631   3.397846   2.299653   0.000000
    10  H    4.075368   4.072581   2.699820   1.099779   0.000000
    11  H    4.108326   4.112515   2.700505   1.095775   1.782389
    12  C    4.206580   4.831127   4.611306   3.484787   4.469219
    13  H    3.415106   4.604684   4.781137   3.332900   4.286840
    14  H    5.206591   5.905090   5.470081   4.269837   5.150744
    15  C    4.270556   4.106608   3.719564   3.285892   4.330491
    16  H    5.305019   4.779551   4.013043   3.966071   4.925785
    17  H    3.561810   3.040657   3.009487   2.921611   4.000049
                   11         12         13         14         15
    11  H    0.000000
    12  C    2.878944   0.000000
    13  H    3.002131   1.083380   0.000000
    14  H    3.487734   1.087016   1.847429   0.000000
    15  C    2.734445   1.331252   2.108390   2.118336   0.000000
    16  H    3.263440   2.114276   3.081985   2.476670   1.087093
    17  H    2.724954   2.109017   2.460014   3.084542   1.081638
                   16         17
    16  H    0.000000
    17  H    1.847988   0.000000
 Stoichiometry    C7H10
 Framework group  C1[X(C7H10)]
 Deg. of freedom    45
 Full point group                 C1      NOp   1
 Largest Abelian subgroup         C1      NOp   1
 Largest concise Abelian subgroup C1      NOp   1
                         Standard orientation:                         
 ---------------------------------------------------------------------
 Center     Atomic      Atomic             Coordinates (Angstroms)
 Number     Number       Type             X           Y           Z
 ---------------------------------------------------------------------
      1          6           0       -0.703706    1.229760   -0.320900
      2          6           0       -1.134881    0.820857    0.892751
      3          6           0       -1.414807   -0.632400    0.847686
      4          6           0       -1.145780   -1.099636   -0.391269
      5          1           0       -0.429436    2.233884   -0.610875
      6          1           0       -1.260601    1.436304    1.772645
      7          1           0       -1.770016   -1.209174    1.690582
      8          1           0       -1.250541   -2.116916   -0.740549
      9          6           0       -0.694499    0.049107   -1.276798
     10          1           0       -1.395104    0.205294   -2.110028
     11          1           0        0.305432   -0.124390   -1.690030
     12          6           0        2.477130    0.461999    0.106688
     13          1           0        1.877466    1.303679    0.431790
     14          1           0        3.427304    0.693868   -0.367663
     15          6           0        2.068129   -0.791360    0.291190
     16          1           0        2.669533   -1.639266   -0.026836
     17          1           0        1.116445   -1.013244    0.754877
 ---------------------------------------------------------------------
 Rotational constants (GHZ):           3.8304576           1.7957710           1.6904138

 **********************************************************************

            Population analysis using the SCF Density.

 **********************************************************************

 Orbital symmetries:
       Occupied  (A) (A) (A) (A) (A) (A) (A) (A) (A) (A) (A) (A)
                 (A) (A) (A) (A) (A) (A) (A) (A) (A) (A) (A) (A)
                 (A) (A)
       Virtual   (A) (A) (A) (A) (A) (A) (A) (A) (A) (A) (A) (A)
                 (A) (A) (A) (A) (A) (A) (A) (A) (A) (A) (A) (A)
                 (A) (A) (A) (A) (A) (A) (A) (A) (A) (A) (A) (A)
                 (A) (A) (A) (A) (A) (A) (A) (A) (A) (A) (A) (A)
                 (A) (A) (A) (A) (A) (A) (A) (A) (A)
 The electronic state is 1-A.
 Alpha  occ. eigenvalues --  -10.12369 -10.12209 -10.12148 -10.12077 -10.12015
 Alpha  occ. eigenvalues --  -10.10713 -10.10482  -0.85636  -0.74864  -0.70680
 Alpha  occ. eigenvalues --   -0.70054  -0.56568  -0.55124  -0.52954  -0.51568
 Alpha  occ. eigenvalues --   -0.46344  -0.43139  -0.41003  -0.40427  -0.37686
 Alpha  occ. eigenvalues --   -0.35876  -0.35737  -0.34329  -0.29765  -0.25867
 Alpha  occ. eigenvalues --   -0.21689
 Alpha virt. eigenvalues --   -0.01123   0.03039   0.09063   0.13310   0.15685
 Alpha virt. eigenvalues --    0.17043   0.17581   0.18993   0.19252   0.19453
 Alpha virt. eigenvalues --    0.20018   0.20877   0.21184   0.25625   0.29720
 Alpha virt. eigenvalues --    0.37796   0.38444   0.40076   0.47245   0.64509
 Alpha virt. eigenvalues --    0.67663   0.71148   0.71862   0.72614   0.73580
 Alpha virt. eigenvalues --    0.74162   0.77856   0.79120   0.81886   0.82477
 Alpha virt. eigenvalues --    0.83564   0.83858   0.85236   0.90261   0.92347
 Alpha virt. eigenvalues --    0.95651   0.99214   1.02246   1.03293   1.04801
 Alpha virt. eigenvalues --    1.05583   1.05994   1.07491   1.11070   1.12660
 Alpha virt. eigenvalues --    1.15933   1.29343   1.36753   1.38477   1.39800
 Alpha virt. eigenvalues --    1.42382   1.55370   1.72272   1.73857   1.85606
 Alpha virt. eigenvalues --    2.05109   2.17715
          Condensed to atoms (all electrons):
               1          2          3          4          5          6
     1  C    5.234365   0.525368  -0.111305  -0.111640   0.390247  -0.036850
     2  C    0.525368   5.180275   0.386985  -0.113689  -0.035713   0.387187
     3  C   -0.111305   0.386985   5.192860   0.526393   0.003913  -0.031973
     4  C   -0.111640  -0.113689   0.526393   5.246519   0.002791   0.003454
     5  H    0.390247  -0.035713   0.003913   0.002791   0.492185  -0.002055
     6  H   -0.036850   0.387187  -0.031973   0.003454  -0.002055   0.497329
     7  H    0.003443  -0.031641   0.387253  -0.036803  -0.000050  -0.000755
     8  H    0.002796   0.003908  -0.035598   0.390438  -0.000032  -0.000050
     9  C    0.334720  -0.123298  -0.125954   0.332211  -0.031921   0.004513
    10  H   -0.035273   0.002189   0.002233  -0.034947  -0.000157  -0.000089
    11  H   -0.034298   0.002322   0.002304  -0.033262  -0.000235  -0.000081
    12  C   -0.003922  -0.001775   0.000180   0.000391  -0.000189   0.000008
    13  H    0.005648   0.002266   0.000026  -0.000079   0.000556   0.000077
    14  H    0.000177   0.000028  -0.000005  -0.000018  -0.000004   0.000000
    15  C    0.001096  -0.000056  -0.003753  -0.004208  -0.000004  -0.000013
    16  H    0.000039   0.000025   0.000064   0.000149   0.000001   0.000000
    17  H   -0.000419  -0.000029   0.002876   0.002079  -0.000013   0.000015
               7          8          9         10         11         12
     1  C    0.003443   0.002796   0.334720  -0.035273  -0.034298  -0.003922
     2  C   -0.031641   0.003908  -0.123298   0.002189   0.002322  -0.001775
     3  C    0.387253  -0.035598  -0.125954   0.002233   0.002304   0.000180
     4  C   -0.036803   0.390438   0.332211  -0.034947  -0.033262   0.000391
     5  H   -0.000050  -0.000032  -0.031921  -0.000157  -0.000235  -0.000189
     6  H   -0.000755  -0.000050   0.004513  -0.000089  -0.000081   0.000008
     7  H    0.496900  -0.002060   0.004503  -0.000090  -0.000080   0.000001
     8  H   -0.002060   0.491529  -0.031827  -0.000178  -0.000231   0.000000
     9  C    0.004503  -0.031827   5.420874   0.347441   0.342707  -0.003520
    10  H   -0.000090  -0.000178   0.347441   0.516582  -0.021243   0.000081
    11  H   -0.000080  -0.000231   0.342707  -0.021243   0.490182   0.004875
    12  C    0.000001   0.000000  -0.003520   0.000081   0.004875   5.169532
    13  H   -0.000002  -0.000001  -0.000530   0.000018  -0.000235   0.375166
    14  H    0.000000  -0.000000   0.000009   0.000000   0.000022   0.376849
    15  C   -0.000027  -0.000073  -0.006247   0.000115   0.006986   0.558821
    16  H   -0.000000   0.000005  -0.000060   0.000001  -0.000025  -0.048897
    17  H    0.000237   0.000088  -0.001479   0.000082  -0.001053  -0.044242
              13         14         15         16         17
     1  C    0.005648   0.000177   0.001096   0.000039  -0.000419
     2  C    0.002266   0.000028  -0.000056   0.000025  -0.000029
     3  C    0.000026  -0.000005  -0.003753   0.000064   0.002876
     4  C   -0.000079  -0.000018  -0.004208   0.000149   0.002079
     5  H    0.000556  -0.000004  -0.000004   0.000001  -0.000013
     6  H    0.000077   0.000000  -0.000013   0.000000   0.000015
     7  H   -0.000002   0.000000  -0.000027  -0.000000   0.000237
     8  H   -0.000001  -0.000000  -0.000073   0.000005   0.000088
     9  C   -0.000530   0.000009  -0.006247  -0.000060  -0.001479
    10  H    0.000018   0.000000   0.000115   0.000001   0.000082
    11  H   -0.000235   0.000022   0.006986  -0.000025  -0.001053
    12  C    0.375166   0.376849   0.558821  -0.048897  -0.044242
    13  H    0.501210  -0.030519  -0.045295   0.003369  -0.004932
    14  H   -0.030519   0.528136  -0.048045  -0.005179   0.003124
    15  C   -0.045295  -0.048045   5.182371   0.378259   0.371961
    16  H    0.003369  -0.005179   0.378259   0.526684  -0.028935
    17  H   -0.004932   0.003124   0.371961  -0.028935   0.476612
 Mulliken charges:
               1
     1  C   -0.164192
     2  C   -0.184351
     3  C   -0.196498
     4  C   -0.169777
     5  H    0.180680
     6  H    0.179283
     7  H    0.179168
     8  H    0.181286
     9  C   -0.462142
    10  H    0.223235
    11  H    0.241344
    12  C   -0.383358
    13  H    0.193259
    14  H    0.175424
    15  C   -0.391889
    16  H    0.174501
    17  H    0.224027
 Sum of Mulliken charges =  -0.00000
 Mulliken charges with hydrogens summed into heavy atoms:
               1
     1  C    0.016489
     2  C   -0.005068
     3  C   -0.017330
     4  C    0.011509
     9  C    0.002437
    12  C   -0.014676
    15  C    0.006639
 Electronic spatial extent (au):  <R**2>=            848.8627
 Charge=             -0.0000 electrons
 Dipole moment (field-independent basis, Debye):
    X=             -0.2080    Y=             -0.0084    Z=             -0.5098  Tot=              0.5506
 Quadrupole moment (field-independent basis, Debye-Ang):
   XX=            -46.2401   YY=            -40.3239   ZZ=            -41.7195
   XY=              0.9512   XZ=             -2.1864   YZ=              0.2450
 Traceless Quadrupole moment (field-independent basis, Debye-Ang):
   XX=             -3.4789   YY=              2.4372   ZZ=              1.0417
   XY=              0.9512   XZ=             -2.1864   YZ=              0.2450
 Octapole moment (field-independent basis, Debye-Ang**2):
  XXX=              9.6076  YYY=             -0.1420  ZZZ=             -0.4543  XYY=              0.7961
  XXY=             -1.9893  XXZ=             -4.2848  XZZ=             -7.9719  YZZ=              0.6594
  YYZ=             -0.1816  XYZ=              0.2477
 Hexadecapole moment (field-independent basis, Debye-Ang**3):
 XXXX=           -697.7972 YYYY=           -246.0717 ZZZZ=           -205.5910 XXXY=              4.7365
 XXXZ=            -21.5879 YYYX=              3.6739 YYYZ=              2.5173 ZZZX=             -7.0716
 ZZZY=              1.0089 XXYY=           -153.1255 XXZZ=           -150.6963 YYZZ=            -75.5401
 XXYZ=             -0.7764 YYXZ=             -2.9773 ZZXY=              1.0319
 N-N= 2.735045132271D+02 E-N=-1.174181448516D+03  KE= 2.687590819372D+02
 1\1\GINC-TACHAS\FOpt\RB3LYP\3-21G\C7H10\LEOS\20-Oct-2019\0\\# opt=modr
 edundant b3lyp/3-21g geom=connectivity\\Title Card Required\\0,1\C,2.1
 236182962,-1.3664738405,0.1532484793\C,3.4668919331,-1.249774274,0.063
 462844\C,3.8281211092,0.1835487153,-0.0228126836\C,2.7027276142,0.9300
 038177,0.0217606628\H,1.5517639177,-2.2809332613,0.21898639\H,4.184687
 1502,-2.0581821124,0.0570128361\H,4.8421977512,0.5510040583,-0.0998968
 561\H,2.6339189901,2.007593949,-0.0217752641\C,1.4932193014,0.01486575
 67,0.1056649909\H,0.8487635699,0.1287464587,-0.7782019881\H,0.89435257
 2,0.2133392797,1.0015944942\C,1.9068204997,-0.9712794468,3.4223187073\
 H,2.1693170174,-1.8211558349,2.8038383655\H,1.1698408003,-1.1443365233
 ,4.202393315\C,2.4703676397,0.220355198,3.2361669916\H,2.2155206453,1.
 0743012544,3.8587433041\H,3.1954011726,0.3866179855,2.450913021\\Versi
 on=ES64L-G16RevB.01\State=1-A\HF=-271.1984546\RMSD=4.762e-09\RMSF=1.26
 8e-03\Dipole=-0.1674363,0.0604141,-0.1234721\Quadrupole=1.3861496,1.84
 95598,-3.2357094,0.2050809,-0.7074464,0.1171365\PG=C01 [X(C7H10)]\\@


 This summer one third of the nation will be ill-housed
 ill-nourished and ill-clad. Only they call it a vacation.
 -- Jonas Salk
 Job cpu time:       0 days  0 hours 25 minutes 19.0 seconds.
 Elapsed time:       0 days  0 hours 12 minutes 43.9 seconds.
 File lengths (MBytes):  RWF=     10 Int=      0 D2E=      0 Chk=      2 Scr=      1
 Normal termination of Gaussian 16 at Sun Oct 20 18:42:15 2019.
