 Entering Gaussian System, Link 0=g16
 Input=C3.4.com
 Output=C3.4.log
 Initial command:
 /opt/g16/l1.exe "/tmp/Gau-32273.inp" -scrdir="/tmp/"
 Entering Link 1 = /opt/g16/l1.exe PID=     32275.
  
 Copyright (c) 1988-2017, Gaussian, Inc.  All Rights Reserved.
  
 This is part of the Gaussian(R) 16 program.  It is based on
 the Gaussian(R) 09 system (copyright 2009, Gaussian, Inc.),
 the Gaussian(R) 03 system (copyright 2003, Gaussian, Inc.),
 the Gaussian(R) 98 system (copyright 1998, Gaussian, Inc.),
 the Gaussian(R) 94 system (copyright 1995, Gaussian, Inc.),
 the Gaussian 92(TM) system (copyright 1992, Gaussian, Inc.),
 the Gaussian 90(TM) system (copyright 1990, Gaussian, Inc.),
 the Gaussian 88(TM) system (copyright 1988, Gaussian, Inc.),
 the Gaussian 86(TM) system (copyright 1986, Carnegie Mellon
 University), and the Gaussian 82(TM) system (copyright 1983,
 Carnegie Mellon University). Gaussian is a federally registered
 trademark of Gaussian, Inc.
  
 This software contains proprietary and confidential information,
 including trade secrets, belonging to Gaussian, Inc.
  
 This software is provided under written license and may be
 used, copied, transmitted, or stored only in accord with that
 written license.
  
 The following legend is applicable only to US Government
 contracts under FAR:
  
                    RESTRICTED RIGHTS LEGEND
  
 Use, reproduction and disclosure by the US Government is
 subject to restrictions as set forth in subparagraphs (a)
 and (c) of the Commercial Computer Software - Restricted
 Rights clause in FAR 52.227-19.
  
 Gaussian, Inc.
 340 Quinnipiac St., Bldg. 40, Wallingford CT 06492
  
  
 ---------------------------------------------------------------
 Warning -- This program may not be used in any manner that
 competes with the business of Gaussian, Inc. or will provide
 assistance to any competitor of Gaussian, Inc.  The licensee
 of this program is prohibited from giving any competitor of
 Gaussian, Inc. access to this program.  By using this program,
 the user acknowledges that Gaussian, Inc. is engaged in the
 business of creating and licensing software in the field of
 computational chemistry and represents and warrants to the
 licensee that it is not a competitor of Gaussian, Inc. and that
 it will not use this program in any manner prohibited above.
 ---------------------------------------------------------------
  

 Cite this work as:
 Gaussian 16, Revision B.01,
 M. J. Frisch, G. W. Trucks, H. B. Schlegel, G. E. Scuseria, 
 M. A. Robb, J. R. Cheeseman, G. Scalmani, V. Barone, 
 G. A. Petersson, H. Nakatsuji, X. Li, M. Caricato, A. V. Marenich, 
 J. Bloino, B. G. Janesko, R. Gomperts, B. Mennucci, H. P. Hratchian, 
 J. V. Ortiz, A. F. Izmaylov, J. L. Sonnenberg, D. Williams-Young, 
 F. Ding, F. Lipparini, F. Egidi, J. Goings, B. Peng, A. Petrone, 
 T. Henderson, D. Ranasinghe, V. G. Zakrzewski, J. Gao, N. Rega, 
 G. Zheng, W. Liang, M. Hada, M. Ehara, K. Toyota, R. Fukuda, 
 J. Hasegawa, M. Ishida, T. Nakajima, Y. Honda, O. Kitao, H. Nakai, 
 T. Vreven, K. Throssell, J. A. Montgomery, Jr., J. E. Peralta, 
 F. Ogliaro, M. J. Bearpark, J. J. Heyd, E. N. Brothers, K. N. Kudin, 
 V. N. Staroverov, T. A. Keith, R. Kobayashi, J. Normand, 
 K. Raghavachari, A. P. Rendell, J. C. Burant, S. S. Iyengar, 
 J. Tomasi, M. Cossi, J. M. Millam, M. Klene, C. Adamo, R. Cammi, 
 J. W. Ochterski, R. L. Martin, K. Morokuma, O. Farkas, 
 J. B. Foresman, and D. J. Fox, Gaussian, Inc., Wallingford CT, 2016.
 
 ******************************************
 Gaussian 16:  ES64L-G16RevB.01 20-Dec-2017
                20-Oct-2019 
 ******************************************
 %nprocshared=2
 Will use up to    2 processors via shared memory.
 %mem=6GB
 %chk=C3.chk
 ------------------------------------------------
 # opt=modredundant b3lyp/3-21g geom=connectivity
 ------------------------------------------------
 1/18=120,19=15,26=3,38=1,57=2/1,3;
 2/9=110,12=2,17=6,18=5,40=1/2;
 3/5=5,11=2,25=1,30=1,71=1,74=-5/1,2,3;
 4//1;
 5/5=2,38=5/2;
 6/7=2,8=2,9=2,10=2,28=1/1;
 7//1,2,3,16;
 1/18=20,19=15,26=3/3(2);
 2/9=110/2;
 99//99;
 2/9=110/2;
 3/5=5,11=2,25=1,30=1,71=1,74=-5/1,2,3;
 4/5=5,16=3,69=1/1;
 5/5=2,38=5/2;
 7//1,2,3,16;
 1/18=20,19=15,26=3/3(-5);
 2/9=110/2;
 6/7=2,8=2,9=2,10=2,19=2,28=1/1;
 99/9=1/99;
 -------------------
 Title Card Required
 -------------------
 Symbolic Z-matrix:
 Charge =  0 Multiplicity = 1
 C                     1.91428  -1.31213   0.01839 
 C                     3.31603  -1.31213   0.01839 
 C                     3.74002   0.05867   0.01839 
 C                     2.58297   0.85012   0.01829 
 H                     1.21269  -2.14536   0.01849 
 H                     3.9604   -2.18483   0.01842 
 H                     4.76459   0.41516   0.01837 
 H                     2.47405   1.93389   0.01814 
 C                     1.47455   0.00838   0.01838 
 H                     0.8843    0.19084  -0.85523 
 H                     0.88443   0.19095   0.89207 
 C                     2.23578  -0.97743   3.38657 
 H                     2.99869  -1.72739   3.46377 
 H                     1.21011  -1.24598   3.46585 
 C                     2.59176   0.35497   3.38203 
 H                     1.83702   1.0986    3.48658 
 H                     3.6256    0.61719   3.4845 
 
 Add virtual bond connecting atoms H14        and H11        Dist= 5.60D+00.
 Add virtual bond connecting atoms C15        and H11        Dist= 5.71D+00.
 Add virtual bond connecting atoms H16        and H11        Dist= 5.50D+00.
 The following ModRedundant input section has been read:
 B       4      15 F                                                           
 B       1      12 F                                                           
 

 GradGradGradGradGradGradGradGradGradGradGradGradGradGradGradGradGradGrad
 Berny optimization.
 Initialization pass.
                           ----------------------------
                           !    Initial Parameters    !
                           ! (Angstroms and Degrees)  !
 --------------------------                            --------------------------
 ! Name  Definition              Value          Derivative Info.                !
 --------------------------------------------------------------------------------
 ! R1    R(1,2)                  1.4018         estimate D2E/DX2                !
 ! R2    R(1,5)                  1.0893         estimate D2E/DX2                !
 ! R3    R(1,9)                  1.3918         estimate D2E/DX2                !
 ! R4    R(1,12)                 3.4            Frozen                          !
 ! R5    R(2,3)                  1.4349         estimate D2E/DX2                !
 ! R6    R(2,6)                  1.0848         estimate D2E/DX2                !
 ! R7    R(3,4)                  1.4018         estimate D2E/DX2                !
 ! R8    R(3,7)                  1.0848         estimate D2E/DX2                !
 ! R9    R(4,8)                  1.0892         estimate D2E/DX2                !
 ! R10   R(4,9)                  1.3918         estimate D2E/DX2                !
 ! R11   R(4,15)                 3.4            Frozen                          !
 ! R12   R(9,10)                 1.07           estimate D2E/DX2                !
 ! R13   R(9,11)                 1.07           estimate D2E/DX2                !
 ! R14   R(11,14)                2.9657         estimate D2E/DX2                !
 ! R15   R(11,15)                3.0235         estimate D2E/DX2                !
 ! R16   R(11,16)                2.9091         estimate D2E/DX2                !
 ! R17   R(12,13)                1.0726         estimate D2E/DX2                !
 ! R18   R(12,14)                1.0632         estimate D2E/DX2                !
 ! R19   R(12,15)                1.3792         estimate D2E/DX2                !
 ! R20   R(15,16)                1.0647         estimate D2E/DX2                !
 ! R21   R(15,17)                1.0715         estimate D2E/DX2                !
 ! A1    A(2,1,5)              130.0976         estimate D2E/DX2                !
 ! A2    A(2,1,9)              108.4177         estimate D2E/DX2                !
 ! A3    A(5,1,9)              121.4847         estimate D2E/DX2                !
 ! A4    A(1,2,3)              107.1873         estimate D2E/DX2                !
 ! A5    A(1,2,6)              126.4408         estimate D2E/DX2                !
 ! A6    A(3,2,6)              126.372          estimate D2E/DX2                !
 ! A7    A(2,3,4)              107.1858         estimate D2E/DX2                !
 ! A8    A(2,3,7)              126.3724         estimate D2E/DX2                !
 ! A9    A(4,3,7)              126.4419         estimate D2E/DX2                !
 ! A10   A(3,4,8)              130.1121         estimate D2E/DX2                !
 ! A11   A(3,4,9)              108.4137         estimate D2E/DX2                !
 ! A12   A(8,4,9)              121.4742         estimate D2E/DX2                !
 ! A13   A(1,9,4)              108.7956         estimate D2E/DX2                !
 ! A14   A(1,9,10)             109.6383         estimate D2E/DX2                !
 ! A15   A(1,9,11)             109.6412         estimate D2E/DX2                !
 ! A16   A(4,9,10)             109.6414         estimate D2E/DX2                !
 ! A17   A(4,9,11)             109.6385         estimate D2E/DX2                !
 ! A18   A(10,9,11)            109.4712         estimate D2E/DX2                !
 ! A19   A(9,11,14)            124.4295         estimate D2E/DX2                !
 ! A20   A(9,11,15)            111.7314         estimate D2E/DX2                !
 ! A21   A(9,11,16)            126.9325         estimate D2E/DX2                !
 ! A22   A(14,11,15)            41.3724         estimate D2E/DX2                !
 ! A23   A(14,11,16)            48.7914         estimate D2E/DX2                !
 ! A24   A(13,12,14)           120.2783         estimate D2E/DX2                !
 ! A25   A(13,12,15)           119.4823         estimate D2E/DX2                !
 ! A26   A(14,12,15)           119.5559         estimate D2E/DX2                !
 ! A27   A(11,14,12)            85.3449         estimate D2E/DX2                !
 ! A28   A(11,15,12)            78.7288         estimate D2E/DX2                !
 ! A29   A(11,15,17)           129.5589         estimate D2E/DX2                !
 ! A30   A(12,15,16)           119.4375         estimate D2E/DX2                !
 ! A31   A(12,15,17)           119.0229         estimate D2E/DX2                !
 ! A32   A(16,15,17)           120.2432         estimate D2E/DX2                !
 ! D1    D(5,1,2,3)           -179.9933         estimate D2E/DX2                !
 ! D2    D(5,1,2,6)              0.0051         estimate D2E/DX2                !
 ! D3    D(9,1,2,3)              0.0004         estimate D2E/DX2                !
 ! D4    D(9,1,2,6)            179.9987         estimate D2E/DX2                !
 ! D5    D(2,1,9,4)              0.0039         estimate D2E/DX2                !
 ! D6    D(2,1,9,10)           119.9009         estimate D2E/DX2                !
 ! D7    D(2,1,9,11)          -119.8913         estimate D2E/DX2                !
 ! D8    D(5,1,9,4)            179.9982         estimate D2E/DX2                !
 ! D9    D(5,1,9,10)           -60.1048         estimate D2E/DX2                !
 ! D10   D(5,1,9,11)            60.103          estimate D2E/DX2                !
 ! D11   D(1,2,3,4)             -0.0044         estimate D2E/DX2                !
 ! D12   D(1,2,3,7)           -179.9984         estimate D2E/DX2                !
 ! D13   D(6,2,3,4)            179.9972         estimate D2E/DX2                !
 ! D14   D(6,2,3,7)              0.0033         estimate D2E/DX2                !
 ! D15   D(2,3,4,8)           -179.9922         estimate D2E/DX2                !
 ! D16   D(2,3,4,9)              0.0069         estimate D2E/DX2                !
 ! D17   D(7,3,4,8)              0.0017         estimate D2E/DX2                !
 ! D18   D(7,3,4,9)           -179.9992         estimate D2E/DX2                !
 ! D19   D(3,4,9,1)             -0.0067         estimate D2E/DX2                !
 ! D20   D(3,4,9,10)          -119.9018         estimate D2E/DX2                !
 ! D21   D(3,4,9,11)           119.8901         estimate D2E/DX2                !
 ! D22   D(8,4,9,1)            179.9924         estimate D2E/DX2                !
 ! D23   D(8,4,9,10)            60.0973         estimate D2E/DX2                !
 ! D24   D(8,4,9,11)           -60.1107         estimate D2E/DX2                !
 ! D25   D(1,9,11,14)           28.2271         estimate D2E/DX2                !
 ! D26   D(1,9,11,15)           73.3008         estimate D2E/DX2                !
 ! D27   D(1,9,11,16)           89.2837         estimate D2E/DX2                !
 ! D28   D(4,9,11,14)          -91.1516         estimate D2E/DX2                !
 ! D29   D(4,9,11,15)          -46.078          estimate D2E/DX2                !
 ! D30   D(4,9,11,16)          -30.0951         estimate D2E/DX2                !
 ! D31   D(10,9,11,14)         148.5367         estimate D2E/DX2                !
 ! D32   D(10,9,11,15)        -166.3897         estimate D2E/DX2                !
 ! D33   D(10,9,11,16)        -150.4067         estimate D2E/DX2                !
 ! D34   D(9,11,14,12)          52.193          estimate D2E/DX2                !
 ! D35   D(15,11,14,12)        -32.1192         estimate D2E/DX2                !
 ! D36   D(16,11,14,12)        -59.4031         estimate D2E/DX2                !
 ! D37   D(9,11,15,12)         -93.3079         estimate D2E/DX2                !
 ! D38   D(9,11,15,17)          25.1835         estimate D2E/DX2                !
 ! D39   D(14,11,15,12)         24.6178         estimate D2E/DX2                !
 ! D40   D(14,11,15,17)        143.1092         estimate D2E/DX2                !
 ! D41   D(13,12,14,11)       -127.1894         estimate D2E/DX2                !
 ! D42   D(15,12,14,11)         62.333          estimate D2E/DX2                !
 ! D43   D(13,12,15,11)        127.4552         estimate D2E/DX2                !
 ! D44   D(13,12,15,16)       -168.7828         estimate D2E/DX2                !
 ! D45   D(13,12,15,17)         -1.7484         estimate D2E/DX2                !
 ! D46   D(14,12,15,11)        -61.9908         estimate D2E/DX2                !
 ! D47   D(14,12,15,16)          1.7713         estimate D2E/DX2                !
 ! D48   D(14,12,15,17)        168.8056         estimate D2E/DX2                !
 --------------------------------------------------------------------------------
 Trust Radius=3.00D-01 FncErr=1.00D-07 GrdErr=1.00D-06 EigMax=2.50D+02 EigMin=1.00D-04
 Number of steps in this run=    102 maximum allowed number of steps=    102.
 GradGradGradGradGradGradGradGradGradGradGradGradGradGradGradGradGradGrad

                          Input orientation:                          
 ---------------------------------------------------------------------
 Center     Atomic      Atomic             Coordinates (Angstroms)
 Number     Number       Type             X           Y           Z
 ---------------------------------------------------------------------
      1          6           0        1.914276   -1.312128    0.018394
      2          6           0        3.316026   -1.312128    0.018394
      3          6           0        3.740024    0.058668    0.018394
      4          6           0        2.582967    0.850121    0.018290
      5          1           0        1.212688   -2.145361    0.018492
      6          1           0        3.960399   -2.184834    0.018419
      7          1           0        4.764587    0.415160    0.018369
      8          1           0        2.474045    1.933893    0.018143
      9          6           0        1.474549    0.008380    0.018385
     10          1           0        0.884296    0.190842   -0.855234
     11          1           0        0.884427    0.190951    0.892069
     12          6           0        2.235780   -0.977434    3.386571
     13          1           0        2.998686   -1.727388    3.463766
     14          1           0        1.210108   -1.245980    3.465854
     15          6           0        2.591763    0.354975    3.382031
     16          1           0        1.837021    1.098595    3.486585
     17          1           0        3.625600    0.617187    3.484497
 ---------------------------------------------------------------------
                    Distance matrix (angstroms):
                    1          2          3          4          5
     1  C    0.000000
     2  C    1.401750   0.000000
     3  C    2.283076   1.434871   0.000000
     4  C    2.263287   2.283133   1.401848   0.000000
     5  H    1.089267   2.262368   3.353382   3.294021   0.000000
     6  H    2.224463   1.084819   2.254300   3.332907   2.747995
     7  H    3.332836   2.254297   1.084811   2.224558   4.378613
     8  H    3.293933   3.353444   2.262559   1.089232   4.269817
     9  C    1.391798   2.266005   2.266033   1.391804   2.169602
    10  H    2.020644   2.989223   2.989294   2.020687   2.515767
    11  H    2.020679   2.989185   2.989187   2.020652   2.515799
    12  C    3.400000   3.552966   3.831563   3.847832   3.708736
    13  H    3.635791   3.484786   3.950971   4.322925   3.903128
    14  H    3.519263   4.040328   4.470745   4.261934   3.562751
    15  C    3.814744   3.823329   3.566561   3.400000   4.412133
    16  H    4.224441   4.475197   4.090381   3.556296   4.789646
    17  H    4.320273   3.978940   3.512678   3.627111   5.046485
                    6          7          8          9         10
     6  H    0.000000
     7  H    2.721523   0.000000
     8  H    4.378717   2.748296   0.000000
     9  C    3.315062   3.315090   2.169468   0.000000
    10  H    3.983656   3.983736   2.515614   1.070000   0.000000
    11  H    3.983619   3.983624   2.515647   1.070000   1.747303
    12  C    3.971973   4.436098   4.458576   3.591097   4.602639
    13  H    3.606184   4.424893   5.054953   4.148076   5.177259
    14  H    4.508920   5.222917   4.857555   3.678096   4.565349
    15  C    4.431442   4.004873   3.717873   3.561237   4.571301
    16  H    5.226645   4.589798   3.624032   3.653542   4.536859
    17  H    4.469576   3.654060   3.882706   4.124512   5.150706
                   11         12         13         14         15
    11  H    0.000000
    12  C    3.068194   0.000000
    13  H    3.842362   1.072574   0.000000
    14  H    2.965672   1.063206   1.852234   0.000000
    15  C    3.023543   1.379151   2.123323   2.116378   0.000000
    16  H    2.909083   2.116343   3.055514   2.427032   1.064678
    17  H    3.796892   2.117547   2.427032   3.050630   1.071481
                   16         17
    16  H    0.000000
    17  H    1.852234   0.000000
 Stoichiometry    C7H10
 Framework group  C1[X(C7H10)]
 Deg. of freedom    45
 Full point group                 C1      NOp   1
 Largest Abelian subgroup         C1      NOp   1
 Largest concise Abelian subgroup C1      NOp   1
                         Standard orientation:                         
 ---------------------------------------------------------------------
 Center     Atomic      Atomic             Coordinates (Angstroms)
 Number     Number       Type             X           Y           Z
 ---------------------------------------------------------------------
      1          6           0       -1.009131    1.116641   -0.405445
      2          6           0       -1.097355    0.769994    0.949898
      3          6           0       -1.114833   -0.663020    1.020764
      4          6           0       -1.036798   -1.143720   -0.293777
      5          1           0       -0.970473    2.097458   -0.877682
      6          1           0       -1.143747    1.456205    1.788823
      7          1           0       -1.176948   -1.261794    1.923220
      8          1           0       -1.022811   -2.166847   -0.667196
      9          6           0       -0.972595   -0.054053   -1.157271
     10          1           0       -1.806087   -0.076944   -1.827843
     11          1           0       -0.062296   -0.092939   -1.718290
     12          6           0        2.334305    0.682284    0.033610
     13          1           0        2.358293    1.219549    0.961611
     14          1           0        2.476179    1.195403   -0.886710
     15          6           0        2.316318   -0.696675    0.047923
     16          1           0        2.473159   -1.231471   -0.859233
     17          1           0        2.355273   -1.207326    0.989088
 ---------------------------------------------------------------------
 Rotational constants (GHZ):           3.7782120           1.7581994           1.6824225
 Standard basis: 3-21G (6D, 7F)
 There are    83 symmetry adapted cartesian basis functions of A   symmetry.
 There are    83 symmetry adapted basis functions of A   symmetry.
    83 basis functions,   135 primitive gaussians,    83 cartesian basis functions
    26 alpha electrons       26 beta electrons
       nuclear repulsion energy       273.9348548918 Hartrees.
 NAtoms=   17 NActive=   17 NUniq=   17 SFac= 1.00D+00 NAtFMM=   60 NAOKFM=F Big=F
 Integral buffers will be    131072 words long.
 Raffenetti 2 integral format.
 Two-electron integral symmetry is turned on.
 One-electron integrals computed using PRISM.
 NBasis=    83 RedAO= T EigKep=  4.16D-03  NBF=    83
 NBsUse=    83 1.00D-06 EigRej= -1.00D+00 NBFU=    83
 ExpMin= 1.83D-01 ExpMax= 1.72D+02 ExpMxC= 1.72D+02 IAcc=3 IRadAn=         5 AccDes= 0.00D+00
 Harris functional with IExCor=  402 and IRadAn=       5 diagonalized for initial guess.
 HarFok:  IExCor=  402 AccDes= 0.00D+00 IRadAn=         5 IDoV= 1 UseB2=F ITyADJ=14
 ICtDFT=  3500011 ScaDFX=  1.000000  1.000000  1.000000  1.000000
 FoFCou: FMM=F IPFlag=           0 FMFlag=      100000 FMFlg1=           0
         NFxFlg=           0 DoJE=T BraDBF=F KetDBF=T FulRan=T
         wScrn=  0.000000 ICntrl=       500 IOpCl=  0 I1Cent=   200000004 NGrid=           0
         NMat0=    1 NMatS0=      1 NMatT0=    0 NMatD0=    1 NMtDS0=    0 NMtDT0=    0
 Petite list used in FoFCou.
 Keep R1 ints in memory in canonical form, NReq=7891700.
 Requested convergence on RMS density matrix=1.00D-08 within 128 cycles.
 Requested convergence on MAX density matrix=1.00D-06.
 Requested convergence on             energy=1.00D-06.
 No special actions if energy rises.
 Integral accuracy reduced to 1.0D-05 until final iterations.
 Initial convergence to 1.0D-05 achieved.  Increase integral accuracy.
 SCF Done:  E(RB3LYP) =  -271.165214398     A.U. after   13 cycles
            NFock= 13  Conv=0.56D-08     -V/T= 2.0077

 **********************************************************************

            Population analysis using the SCF Density.

 **********************************************************************

 Orbital symmetries:
       Occupied  (A) (A) (A) (A) (A) (A) (A) (A) (A) (A) (A) (A)
                 (A) (A) (A) (A) (A) (A) (A) (A) (A) (A) (A) (A)
                 (A) (A)
       Virtual   (A) (A) (A) (A) (A) (A) (A) (A) (A) (A) (A) (A)
                 (A) (A) (A) (A) (A) (A) (A) (A) (A) (A) (A) (A)
                 (A) (A) (A) (A) (A) (A) (A) (A) (A) (A) (A) (A)
                 (A) (A) (A) (A) (A) (A) (A) (A) (A) (A) (A) (A)
                 (A) (A) (A) (A) (A) (A) (A) (A) (A)
 The electronic state is 1-A.
 Alpha  occ. eigenvalues --  -10.11562 -10.11446 -10.11257 -10.11139 -10.10896
 Alpha  occ. eigenvalues --  -10.10884 -10.09959  -0.87573  -0.74386  -0.71635
 Alpha  occ. eigenvalues --   -0.69043  -0.57324  -0.53803  -0.53792  -0.51369
 Alpha  occ. eigenvalues --   -0.46829  -0.45802  -0.40138  -0.38578  -0.37298
 Alpha  occ. eigenvalues --   -0.36914  -0.35936  -0.35814  -0.28725  -0.24823
 Alpha  occ. eigenvalues --   -0.19963
 Alpha virt. eigenvalues --   -0.00692   0.02122   0.09179   0.12679   0.14906
 Alpha virt. eigenvalues --    0.17035   0.18314   0.18840   0.19496   0.20236
 Alpha virt. eigenvalues --    0.20357   0.21763   0.26465   0.26726   0.28114
 Alpha virt. eigenvalues --    0.34997   0.39275   0.42751   0.48038   0.65936
 Alpha virt. eigenvalues --    0.67161   0.70415   0.71328   0.72100   0.72308
 Alpha virt. eigenvalues --    0.75961   0.77682   0.79897   0.81151   0.83088
 Alpha virt. eigenvalues --    0.84214   0.84755   0.90620   0.91735   0.93358
 Alpha virt. eigenvalues --    0.96632   0.99729   1.02966   1.03163   1.03855
 Alpha virt. eigenvalues --    1.04866   1.05740   1.07993   1.08800   1.10083
 Alpha virt. eigenvalues --    1.14654   1.31846   1.32696   1.37463   1.38451
 Alpha virt. eigenvalues --    1.40098   1.46733   1.62668   1.81635   1.82419
 Alpha virt. eigenvalues --    2.07829   2.24595
          Condensed to atoms (all electrons):
               1          2          3          4          5          6
     1  C    5.272064   0.545977  -0.119264  -0.143560   0.393599  -0.033756
     2  C    0.545977   5.160810   0.404187  -0.119234  -0.024387   0.387073
     3  C   -0.119264   0.404187   5.160825   0.546071   0.003307  -0.033510
     4  C   -0.143560  -0.119234   0.546071   5.272035   0.004856   0.003795
     5  H    0.393599  -0.024387   0.003307   0.004856   0.498894  -0.001481
     6  H   -0.033756   0.387073  -0.033510   0.003795  -0.001481   0.502797
     7  H    0.003795  -0.033517   0.387085  -0.033739  -0.000048  -0.001029
     8  H    0.004857   0.003305  -0.024362   0.393614  -0.000065  -0.000048
     9  C    0.308794  -0.143544  -0.143549   0.308707  -0.046836   0.005212
    10  H   -0.044641   0.002978   0.002981  -0.044692  -0.001049  -0.000114
    11  H   -0.043401   0.002625   0.002635  -0.043421  -0.001132  -0.000110
    12  C    0.004056   0.001155  -0.000988  -0.001420  -0.000055   0.000002
    13  H    0.000174   0.000424  -0.000022  -0.000008  -0.000004   0.000042
    14  H    0.000271  -0.000005   0.000002  -0.000018   0.000039  -0.000000
    15  C   -0.001554  -0.001038   0.001152   0.004156  -0.000015  -0.000003
    16  H   -0.000016   0.000004  -0.000002   0.000212  -0.000000  -0.000000
    17  H   -0.000006  -0.000031   0.000350   0.000179   0.000000  -0.000000
               7          8          9         10         11         12
     1  C    0.003795   0.004857   0.308794  -0.044641  -0.043401   0.004056
     2  C   -0.033517   0.003305  -0.143544   0.002978   0.002625   0.001155
     3  C    0.387085  -0.024362  -0.143549   0.002981   0.002635  -0.000988
     4  C   -0.033739   0.393614   0.308707  -0.044692  -0.043421  -0.001420
     5  H   -0.000048  -0.000065  -0.046836  -0.001049  -0.001132  -0.000055
     6  H   -0.001029  -0.000048   0.005212  -0.000114  -0.000110   0.000002
     7  H    0.502730  -0.001479   0.005210  -0.000114  -0.000110  -0.000003
     8  H   -0.001479   0.498719  -0.046839  -0.001050  -0.001139  -0.000013
     9  C    0.005210  -0.046839   5.588146   0.344960   0.339053  -0.001819
    10  H   -0.000114  -0.001050   0.344960   0.509127  -0.015667   0.000060
    11  H   -0.000110  -0.001139   0.339053  -0.015667   0.497531   0.003298
    12  C   -0.000003  -0.000013  -0.001819   0.000060   0.003298   5.153656
    13  H   -0.000000  -0.000000   0.000007   0.000000  -0.000002   0.382647
    14  H   -0.000000  -0.000000  -0.000014   0.000000   0.000382   0.381677
    15  C    0.000003  -0.000055  -0.002042   0.000065   0.003829   0.545409
    16  H   -0.000000   0.000027  -0.000035   0.000001   0.000451  -0.048380
    17  H    0.000033  -0.000003   0.000012   0.000000  -0.000002  -0.045753
              13         14         15         16         17
     1  C    0.000174   0.000271  -0.001554  -0.000016  -0.000006
     2  C    0.000424  -0.000005  -0.001038   0.000004  -0.000031
     3  C   -0.000022   0.000002   0.001152  -0.000002   0.000350
     4  C   -0.000008  -0.000018   0.004156   0.000212   0.000179
     5  H   -0.000004   0.000039  -0.000015  -0.000000   0.000000
     6  H    0.000042  -0.000000  -0.000003  -0.000000  -0.000000
     7  H   -0.000000  -0.000000   0.000003  -0.000000   0.000033
     8  H   -0.000000  -0.000000  -0.000055   0.000027  -0.000003
     9  C    0.000007  -0.000014  -0.002042  -0.000035   0.000012
    10  H    0.000000   0.000000   0.000065   0.000001   0.000000
    11  H   -0.000002   0.000382   0.003829   0.000451  -0.000002
    12  C    0.382647   0.381677   0.545409  -0.048380  -0.045753
    13  H    0.504469  -0.029107  -0.045154   0.003266  -0.004694
    14  H   -0.029107   0.514675  -0.048364  -0.004596   0.003304
    15  C   -0.045154  -0.048364   5.153604   0.381546   0.382818
    16  H    0.003266  -0.004596   0.381546   0.515827  -0.029240
    17  H   -0.004694   0.003304   0.382818  -0.029240   0.505327
 Mulliken charges:
               1
     1  C   -0.147391
     2  C   -0.186784
     3  C   -0.186898
     4  C   -0.147532
     5  H    0.174376
     6  H    0.171132
     7  H    0.171185
     8  H    0.174531
     9  C   -0.515423
    10  H    0.247155
    11  H    0.255179
    12  C   -0.373530
    13  H    0.187963
    14  H    0.181754
    15  C   -0.374358
    16  H    0.180935
    17  H    0.187708
 Sum of Mulliken charges =  -0.00000
 Mulliken charges with hydrogens summed into heavy atoms:
               1
     1  C    0.026985
     2  C   -0.015652
     3  C   -0.015712
     4  C    0.026998
     9  C   -0.013089
    12  C   -0.003814
    15  C   -0.005715
 Electronic spatial extent (au):  <R**2>=            859.0183
 Charge=             -0.0000 electrons
 Dipole moment (field-independent basis, Debye):
    X=              0.2023    Y=             -0.0260    Z=             -0.7158  Tot=              0.7443
 Quadrupole moment (field-independent basis, Debye-Ang):
   XX=            -47.2884   YY=            -40.8891   ZZ=            -38.7289
   XY=              0.0876   XZ=              0.4546   YZ=              0.1031
 Traceless Quadrupole moment (field-independent basis, Debye-Ang):
   XX=             -4.9863   YY=              1.4130   ZZ=              3.5732
   XY=              0.0876   XZ=              0.4546   YZ=              0.1031
 Octapole moment (field-independent basis, Debye-Ang**2):
  XXX=             -0.3522  YYY=             -0.0944  ZZZ=              1.3521  XYY=              1.4951
  XXY=             -0.2917  XXZ=             -3.6696  XZZ=             -0.5697  YZZ=              0.1534
  YYZ=             -0.6817  XYZ=             -0.0877
 Hexadecapole moment (field-independent basis, Debye-Ang**3):
 XXXX=           -764.8065 YYYY=           -247.8891 ZZZZ=           -212.3718 XXXY=              0.4399
 XXXZ=              5.8234 YYYX=              0.3896 YYYZ=              0.5898 ZZZX=             -1.4063
 ZZZY=             -0.5476 XXYY=           -155.3912 XXZZ=           -139.6277 YYZZ=            -71.1592
 XXYZ=              0.4031 YYXZ=              0.1714 ZZXY=             -0.0306
 N-N= 2.739348548918D+02 E-N=-1.175356919307D+03  KE= 2.690930240013D+02
 Calling FoFJK, ICntrl=      2127 FMM=F ISym2X=0 I1Cent= 0 IOpClX= 0 NMat=1 NMatS=1 NMatT=0.
 ***** Axes restored to original set *****
 -------------------------------------------------------------------
 Center     Atomic                   Forces (Hartrees/Bohr)
 Number     Number              X              Y              Z
 -------------------------------------------------------------------
      1        6           0.054234501   -0.082100923    0.000922865
      2        6          -0.035805156   -0.023620043   -0.000991682
      3        6          -0.016288006    0.039763281   -0.001004298
      4        6           0.091232488    0.037086586    0.001059057
      5        1           0.009951440   -0.000424091   -0.000169049
      6        1          -0.001528645    0.003167272   -0.000045498
      7        1          -0.003048857   -0.001748746   -0.000032004
      8        1           0.008475391   -0.005246710   -0.000146796
      9        6          -0.066743448    0.020528376   -0.001187028
     10        1          -0.020552248    0.006339385   -0.015714099
     11        1          -0.018796216    0.005818890    0.015376089
     12        6           0.022059502    0.060723541    0.007077717
     13        1           0.002231344   -0.009068346   -0.004397300
     14        1          -0.014013972   -0.008981186   -0.003039555
     15        6          -0.011855865   -0.063971018    0.011430481
     16        1          -0.007020040    0.014144162   -0.003849224
     17        1           0.007467786    0.007589568   -0.005289676
 -------------------------------------------------------------------
 Cartesian Forces:  Max     0.091232488 RMS     0.027614609

 GradGradGradGradGradGradGradGradGradGradGradGradGradGradGradGradGradGrad
 Berny optimization.
 FormGI is forming the generalized inverse of G from B-inverse, IUseBI=4.
 Internal  Forces:  Max     0.080249068 RMS     0.014574382
 Search for a local minimum.
 Step number   1 out of a maximum of  102
 All quantities printed in internal units (Hartrees-Bohrs-Radians)
 Mixed Optimization -- RFO/linear search
 Second derivative matrix not updated -- first step.
 ITU=  0
     Eigenvalues ---    0.01205   0.01463   0.01786   0.01792   0.01911
     Eigenvalues ---    0.01933   0.02009   0.02130   0.02138   0.02178
     Eigenvalues ---    0.02492   0.03406   0.04222   0.05197   0.05640
     Eigenvalues ---    0.06716   0.07372   0.08131   0.10284   0.14062
     Eigenvalues ---    0.15823   0.16000   0.16000   0.16000   0.16000
     Eigenvalues ---    0.17959   0.22000   0.31851   0.34025   0.34897
     Eigenvalues ---    0.34902   0.35418   0.35419   0.35816   0.36664
     Eigenvalues ---    0.36907   0.37044   0.37230   0.40316   0.43393
     Eigenvalues ---    0.43962   0.45652   0.465671000.000001000.00000
     Eigenvalues --- 1000.000001000.000001000.000001000.000001000.00000
     Eigenvalues --- 1000.000001000.000001000.000001000.000001000.00000
     Eigenvalues --- 1000.000001000.000001000.000001000.000001000.00000
     Eigenvalues --- 1000.000001000.000001000.000001000.000001000.00000
     Eigenvalues --- 1000.000001000.000001000.000001000.000001000.00000
     Eigenvalues --- 1000.000001000.000001000.000001000.000001000.00000
     Eigenvalues --- 1000.000001000.000001000.000001000.000001000.00000
     Eigenvalues --- 1000.000001000.000001000.000001000.000001000.00000
     Eigenvalues --- 1000.000001000.000001000.000001000.000001000.00000
     Eigenvalues --- 1000.000001000.000001000.000001000.000001000.00000
     Eigenvalues --- 1000.000001000.000001000.000001000.000001000.00000
     Eigenvalues --- 1000.00000
 RFO step:  Lambda=-4.83938837D-02 EMin= 1.20493550D-02
 Linear search not attempted -- first point.
 Maximum step size (   0.300) exceeded in Quadratic search.
    -- Step size scaled by   0.909
 Iteration  1 RMS(Cart)=  0.04802358 RMS(Int)=  0.00117872
 Iteration  2 RMS(Cart)=  0.00144919 RMS(Int)=  0.00029743
 Iteration  3 RMS(Cart)=  0.00000110 RMS(Int)=  0.00029742
 Iteration  4 RMS(Cart)=  0.00000000 RMS(Int)=  0.00029742
 Iteration  1 RMS(Cart)=  0.00008890 RMS(Int)=  0.00002070
 Iteration  2 RMS(Cart)=  0.00001304 RMS(Int)=  0.00002206
 Iteration  3 RMS(Cart)=  0.00000259 RMS(Int)=  0.00002260
 Iteration  4 RMS(Cart)=  0.00000058 RMS(Int)=  0.00002273
 Variable       Old X    -DE/DX   Delta X   Delta X   Delta X     New X
                                 (Linear)    (Quad)   (Total)
    R1        2.64892  -0.02803   0.00000  -0.05517  -0.05525   2.59368
    R2        2.05842  -0.00609   0.00000  -0.01391  -0.01391   2.04450
    R3        2.63012   0.08025   0.00000   0.15263   0.15277   2.78289
    R4        6.42507   0.00512   0.00000   0.00000   0.00000   6.42507
    R5        2.71151   0.03150   0.00000   0.04681   0.04656   2.75807
    R6        2.05001  -0.00346   0.00000  -0.00780  -0.00780   2.04221
    R7        2.64911  -0.02811   0.00000  -0.05534  -0.05542   2.59369
    R8        2.05000  -0.00345   0.00000  -0.00779  -0.00779   2.04220
    R9        2.05835  -0.00607   0.00000  -0.01387  -0.01387   2.04448
   R10        2.63013   0.08019   0.00000   0.15252   0.15271   2.78284
   R11        6.42507   0.00532   0.00000   0.00000  -0.00000   6.42507
   R12        2.02201   0.02525   0.00000   0.05453   0.05453   2.07654
   R13        2.02201   0.01807   0.00000   0.04567   0.04513   2.06714
   R14        5.60431  -0.00541   0.00000  -0.04234  -0.04272   5.56158
   R15        5.71367  -0.00425   0.00000  -0.01208  -0.01255   5.70112
   R16        5.49737  -0.00173   0.00000  -0.02652  -0.02642   5.47096
   R17        2.02687   0.00761   0.00000   0.01657   0.01657   2.04344
   R18        2.00917   0.01516   0.00000   0.03223   0.03244   2.04161
   R19        2.60622  -0.03675   0.00000  -0.07106  -0.07096   2.53526
   R20        2.01195   0.01615   0.00000   0.03145   0.03164   2.04359
   R21        2.02481   0.00856   0.00000   0.01856   0.01856   2.04337
    A1        2.27063  -0.00497   0.00000  -0.03480  -0.03484   2.23579
    A2        1.89225  -0.00630   0.00000  -0.00118  -0.00112   1.89113
    A3        2.12031   0.01127   0.00000   0.03598   0.03593   2.15624
    A4        1.87077   0.01658   0.00000   0.02921   0.02887   1.89964
    A5        2.20681  -0.00762   0.00000  -0.01168  -0.01152   2.19529
    A6        2.20561  -0.00896   0.00000  -0.01753  -0.01736   2.18825
    A7        1.87074   0.01660   0.00000   0.02925   0.02891   1.89965
    A8        2.20561  -0.00897   0.00000  -0.01752  -0.01735   2.18826
    A9        2.20683  -0.00764   0.00000  -0.01173  -0.01156   2.19527
   A10        2.27088  -0.00500   0.00000  -0.03493  -0.03497   2.23592
   A11        1.89218  -0.00627   0.00000  -0.00110  -0.00104   1.89113
   A12        2.12012   0.01127   0.00000   0.03603   0.03598   2.15610
   A13        1.89884  -0.02061   0.00000  -0.05617  -0.05573   1.84311
   A14        1.91355   0.00703   0.00000   0.02693   0.02745   1.94100
   A15        1.91360   0.00783   0.00000   0.02182   0.02137   1.93497
   A16        1.91360   0.00722   0.00000   0.02953   0.02967   1.94327
   A17        1.91355   0.00741   0.00000   0.01536   0.01570   1.92925
   A18        1.91063  -0.00885   0.00000  -0.03729  -0.03730   1.87334
   A19        2.17171  -0.00395   0.00000  -0.01014  -0.01077   2.16093
   A20        1.95008  -0.00680   0.00000  -0.01415  -0.01467   1.93541
   A21        2.21539  -0.00526   0.00000  -0.01555  -0.01592   2.19947
   A22        0.72208  -0.00203   0.00000   0.00037   0.00046   0.72255
   A23        0.85157   0.00040   0.00000   0.01156   0.01157   0.86314
   A24        2.09925  -0.00733   0.00000  -0.02768  -0.02808   2.07117
   A25        2.08536   0.00202   0.00000   0.01527   0.01496   2.10032
   A26        2.08664   0.00566   0.00000   0.01828   0.01821   2.10485
   A27        1.48955  -0.00411   0.00000  -0.00452  -0.00452   1.48503
   A28        1.37408   0.00170   0.00000  -0.00426  -0.00445   1.36963
   A29        2.26123  -0.00563   0.00000  -0.03663  -0.03653   2.22470
   A30        2.08458   0.00599   0.00000   0.02161   0.02076   2.10533
   A31        2.07734  -0.00027   0.00000   0.01522   0.01474   2.09208
   A32        2.09864  -0.00424   0.00000  -0.02268  -0.02369   2.07495
    D1       -3.14148  -0.00031   0.00000   0.00026   0.00075  -3.14073
    D2        0.00009  -0.00027   0.00000  -0.00255  -0.00237  -0.00228
    D3        0.00001   0.00025   0.00000   0.00881   0.00920   0.00921
    D4        3.14157   0.00029   0.00000   0.00601   0.00609  -3.13552
    D5        0.00007  -0.00038   0.00000  -0.01401  -0.01402  -0.01395
    D6        2.09267   0.00009   0.00000   0.00396   0.00365   2.09631
    D7       -2.09250  -0.00157   0.00000  -0.01165  -0.01153  -2.10403
    D8        3.14156   0.00012   0.00000  -0.00634  -0.00604   3.13552
    D9       -1.04903   0.00059   0.00000   0.01163   0.01163  -1.03740
   D10        1.04900  -0.00107   0.00000  -0.00398  -0.00356   1.04544
   D11       -0.00008  -0.00003   0.00000  -0.00045  -0.00043  -0.00051
   D12       -3.14156   0.00006   0.00000  -0.00251  -0.00284   3.13878
   D13        3.14154  -0.00007   0.00000   0.00235   0.00266  -3.13898
   D14        0.00006   0.00002   0.00000   0.00029   0.00025   0.00031
   D15       -3.14146   0.00041   0.00000   0.00119   0.00056  -3.14090
   D16        0.00012  -0.00020   0.00000  -0.00808  -0.00853  -0.00841
   D17        0.00003   0.00032   0.00000   0.00325   0.00298   0.00301
   D18       -3.14158  -0.00029   0.00000  -0.00602  -0.00611   3.13550
   D19       -0.00012   0.00036   0.00000   0.01372   0.01375   0.01363
   D20       -2.09268   0.00001   0.00000  -0.00263  -0.00247  -2.09515
   D21        2.09248   0.00181   0.00000   0.01537   0.01500   2.10748
   D22        3.14146  -0.00018   0.00000   0.00541   0.00517  -3.13655
   D23        1.04890  -0.00054   0.00000  -0.01095  -0.01105   1.03785
   D24       -1.04913   0.00127   0.00000   0.00706   0.00642  -1.04271
   D25        0.49266  -0.00486   0.00000  -0.01979  -0.01958   0.47308
   D26        1.27934  -0.01073   0.00000  -0.02619  -0.02598   1.25336
   D27        1.55830  -0.00816   0.00000  -0.01530  -0.01548   1.54281
   D28       -1.59090   0.01108   0.00000   0.02632   0.02621  -1.56469
   D29       -0.80421   0.00521   0.00000   0.01992   0.01980  -0.78441
   D30       -0.52526   0.00778   0.00000   0.03081   0.03030  -0.49495
   D31        2.59245   0.00312   0.00000   0.00367   0.00365   2.59611
   D32       -2.90405  -0.00275   0.00000  -0.00274  -0.00275  -2.90680
   D33       -2.62509  -0.00018   0.00000   0.00816   0.00775  -2.61734
   D34        0.91094  -0.00047   0.00000   0.00924   0.00904   0.91998
   D35       -0.56059   0.00802   0.00000   0.02092   0.02072  -0.53986
   D36       -1.03678   0.00402   0.00000   0.01947   0.01932  -1.01746
   D37       -1.62853   0.00215   0.00000   0.00507   0.00542  -1.62311
   D38        0.43954   0.00196   0.00000   0.01344   0.01343   0.45297
   D39        0.42966   0.00375   0.00000   0.00480   0.00477   0.43444
   D40        2.49773   0.00356   0.00000   0.01317   0.01278   2.51051
   D41       -2.21987   0.00550   0.00000   0.04704   0.04635  -2.17352
   D42        1.08792   0.00283   0.00000   0.00499   0.00516   1.09307
   D43        2.22451  -0.00285   0.00000  -0.03318  -0.03356   2.19095
   D44       -2.94582  -0.00395   0.00000  -0.05802  -0.05833  -3.00415
   D45       -0.03052   0.00279   0.00000   0.00870   0.00868  -0.02183
   D46       -1.08194  -0.00111   0.00000   0.00440   0.00420  -1.07774
   D47        0.03091  -0.00221   0.00000  -0.02044  -0.02056   0.01035
   D48        2.94621   0.00454   0.00000   0.04628   0.04645   2.99267
         Item               Value     Threshold  Converged?
 Maximum Force            0.080192     0.000450     NO 
 RMS     Force            0.014700     0.000300     NO 
 Maximum Displacement     0.221909     0.001800     NO 
 RMS     Displacement     0.047853     0.001200     NO 
 Predicted change in Energy=-2.652673D-02
 GradGradGradGradGradGradGradGradGradGradGradGradGradGradGradGradGradGrad

                          Input orientation:                          
 ---------------------------------------------------------------------
 Center     Atomic      Atomic             Coordinates (Angstroms)
 Number     Number       Type             X           Y           Z
 ---------------------------------------------------------------------
      1          6           0        1.941395   -1.366814    0.026486
      2          6           0        3.313004   -1.325342   -0.001212
      3          6           0        3.742622    0.069489    0.005437
      4          6           0        2.631954    0.875255    0.036512
      5          1           0        1.299787   -2.237927    0.030733
      6          1           0        3.970798   -2.182541   -0.021467
      7          1           0        4.768748    0.408206   -0.009391
      8          1           0        2.591474    1.956321    0.048561
      9          6           0        1.435824    0.016264    0.039327
     10          1           0        0.798832    0.214838   -0.833766
     11          1           0        0.832001    0.202095    0.932323
     12          6           0        2.219344   -0.948271    3.389159
     13          1           0        2.977370   -1.718929    3.417088
     14          1           0        1.182117   -1.238121    3.474924
     15          6           0        2.569184    0.346905    3.394622
     16          1           0        1.819329    1.119697    3.494514
     17          1           0        3.613463    0.622397    3.447564
 ---------------------------------------------------------------------
                    Distance matrix (angstroms):
                    1          2          3          4          5
     1  C    0.000000
     2  C    1.372515   0.000000
     3  C    2.303872   1.459510   0.000000
     4  C    2.346028   2.303883   1.372519   0.000000
     5  H    1.081904   2.210627   3.360394   3.386237   0.000000
     6  H    2.187736   1.080692   2.263720   3.338560   2.672095
     7  H    3.338549   2.263724   1.080687   2.187723   4.363177
     8  H    3.386195   3.360416   2.210687   1.081891   4.388678
     9  C    1.472641   2.307673   2.307661   1.472617   2.258309
    10  H    2.132394   3.063717   3.064521   2.133981   2.648465
    11  H    2.124328   3.059399   3.057518   2.120248   2.642989
    12  C    3.400000   3.582301   3.847828   3.838715   3.713195
    13  H    3.562782   3.457215   3.927265   4.275208   3.814583
    14  H    3.533382   4.078211   4.505926   4.288480   3.588302
    15  C    3.830834   3.857637   3.597289   3.400000   4.428145
    16  H    4.269058   4.519887   4.120152   3.560602   4.851942
    17  H    4.296108   3.972154   3.488642   3.558450   5.020884
                    6          7          8          9         10
     6  H    0.000000
     7  H    2.710874   0.000000
     8  H    4.363212   2.672179   0.000000
     9  C    3.356268   3.356244   2.258192   0.000000
    10  H    4.058155   4.059214   2.650440   1.098855   0.000000
    11  H    4.055644   4.053058   2.637061   1.093881   1.766446
    12  C    4.027826   4.459778   4.442379   3.572898   4.604755
    13  H    3.609086   4.412992   5.000336   4.098357   5.153178
    14  H    4.570933   5.264481   4.891903   3.666221   4.563201
    15  C    4.475744   4.053288   3.713064   3.556941   4.585941
    16  H    5.281640   4.634937   3.629152   3.647321   4.538082
    17  H    4.475437   3.651177   3.791706   4.089692   5.139848
                   11         12         13         14         15
    11  H    0.000000
    12  C    3.046983   0.000000
    13  H    3.803551   1.081341   0.000000
    14  H    2.943064   1.080375   1.859424   0.000000
    15  C    3.016901   1.341602   2.105894   2.107774   0.000000
    16  H    2.895105   2.108934   3.066733   2.442484   1.081420
    17  H    3.773542   2.100946   2.426386   3.061653   1.081303
                   16         17
    16  H    0.000000
    17  H    1.862372   0.000000
 Stoichiometry    C7H10
 Framework group  C1[X(C7H10)]
 Deg. of freedom    45
 Full point group                 C1      NOp   1
 Largest Abelian subgroup         C1      NOp   1
 Largest concise Abelian subgroup C1      NOp   1
                         Standard orientation:                         
 ---------------------------------------------------------------------
 Center     Atomic      Atomic             Coordinates (Angstroms)
 Number     Number       Type             X           Y           Z
 ---------------------------------------------------------------------
      1          6           0       -1.005493    1.160970   -0.371625
      2          6           0       -1.144629    0.764092    0.934869
      3          6           0       -1.147769   -0.694497    0.986620
      4          6           0       -1.011199   -1.183578   -0.288510
      5          1           0       -0.964600    2.169015   -0.762379
      6          1           0       -1.234279    1.420646    1.788563
      7          1           0       -1.240383   -1.288518    1.884643
      8          1           0       -0.976187   -2.216900   -0.607113
      9          6           0       -0.926114   -0.042927   -1.216020
     10          1           0       -1.740365   -0.065632   -1.953559
     11          1           0        0.016554   -0.068550   -1.770363
     12          6           0        2.330200    0.671972    0.068868
     13          1           0        2.281936    1.218704    1.000561
     14          1           0        2.495301    1.221435   -0.846579
     15          6           0        2.330595   -0.669630    0.069639
     16          1           0        2.505600   -1.221026   -0.844038
     17          1           0        2.302874   -1.207583    1.007219
 ---------------------------------------------------------------------
 Rotational constants (GHZ):           3.6918242           1.7512600           1.6643127
 Standard basis: 3-21G (6D, 7F)
 There are    83 symmetry adapted cartesian basis functions of A   symmetry.
 There are    83 symmetry adapted basis functions of A   symmetry.
    83 basis functions,   135 primitive gaussians,    83 cartesian basis functions
    26 alpha electrons       26 beta electrons
       nuclear repulsion energy       271.5667428868 Hartrees.
 NAtoms=   17 NActive=   17 NUniq=   17 SFac= 1.00D+00 NAtFMM=   60 NAOKFM=F Big=F
 Integral buffers will be    131072 words long.
 Raffenetti 2 integral format.
 Two-electron integral symmetry is turned on.
 One-electron integrals computed using PRISM.
 NBasis=    83 RedAO= T EigKep=  4.45D-03  NBF=    83
 NBsUse=    83 1.00D-06 EigRej= -1.00D+00 NBFU=    83
 Initial guess from the checkpoint file:  "C3.chk"
 B after Tr=    -0.000000    0.000000    0.000000
         Rot=    0.999929   -0.006600    0.009481   -0.002971 Ang=  -1.37 deg.
 ExpMin= 1.83D-01 ExpMax= 1.72D+02 ExpMxC= 1.72D+02 IAcc=3 IRadAn=         5 AccDes= 0.00D+00
 Harris functional with IExCor=  402 and IRadAn=       5 diagonalized for initial guess.
 HarFok:  IExCor=  402 AccDes= 0.00D+00 IRadAn=         5 IDoV= 1 UseB2=F ITyADJ=14
 ICtDFT=  3500011 ScaDFX=  1.000000  1.000000  1.000000  1.000000
 FoFCou: FMM=F IPFlag=           0 FMFlag=      100000 FMFlg1=           0
         NFxFlg=           0 DoJE=T BraDBF=F KetDBF=T FulRan=T
         wScrn=  0.000000 ICntrl=       500 IOpCl=  0 I1Cent=   200000004 NGrid=           0
         NMat0=    1 NMatS0=      1 NMatT0=    0 NMatD0=    1 NMtDS0=    0 NMtDT0=    0
 Petite list used in FoFCou.
 Keep R1 ints in memory in canonical form, NReq=7891700.
 Requested convergence on RMS density matrix=1.00D-08 within 128 cycles.
 Requested convergence on MAX density matrix=1.00D-06.
 Requested convergence on             energy=1.00D-06.
 No special actions if energy rises.
 Integral accuracy reduced to 1.0D-05 until final iterations.
 Initial convergence to 1.0D-05 achieved.  Increase integral accuracy.
 SCF Done:  E(RB3LYP) =  -271.193157382     A.U. after   12 cycles
            NFock= 12  Conv=0.54D-08     -V/T= 2.0089
 Calling FoFJK, ICntrl=      2127 FMM=F ISym2X=0 I1Cent= 0 IOpClX= 0 NMat=1 NMatS=1 NMatT=0.
 ***** Axes restored to original set *****
 -------------------------------------------------------------------
 Center     Atomic                   Forces (Hartrees/Bohr)
 Number     Number              X              Y              Z
 -------------------------------------------------------------------
      1        6           0.025381668   -0.018558873   -0.001227408
      2        6          -0.017890779   -0.010374764   -0.000209620
      3        6          -0.008958606    0.018733669   -0.000196947
      4        6           0.031677799    0.001011313   -0.001583110
      5        1           0.002507647    0.000018853   -0.000235454
      6        1           0.001068272    0.000667963    0.000034009
      7        1           0.000510347   -0.001163070    0.000073281
      8        1           0.002070523   -0.001420597   -0.000173545
      9        6          -0.030022369    0.009350380   -0.000712891
     10        1          -0.002181656    0.000804027   -0.001017626
     11        1          -0.003433424    0.000697106    0.002805228
     12        6           0.005300516    0.017591112    0.007518781
     13        1          -0.001355525   -0.004143997   -0.003593815
     14        1          -0.002605948   -0.004549836   -0.003298141
     15        6          -0.003717457   -0.018601645    0.009787364
     16        1           0.000656906    0.004759394   -0.003395164
     17        1           0.000992086    0.005178965   -0.004574942
 -------------------------------------------------------------------
 Cartesian Forces:  Max     0.031677799 RMS     0.009793242

 GradGradGradGradGradGradGradGradGradGradGradGradGradGradGradGradGradGrad
 Berny optimization.
 Using GEDIIS/GDIIS optimizer.
 FormGI is forming the generalized inverse of G from B-inverse, IUseBI=4.
 Internal  Forces:  Max     0.022067036 RMS     0.004430201
 Search for a local minimum.
 Step number   2 out of a maximum of  102
 All quantities printed in internal units (Hartrees-Bohrs-Radians)
 Mixed Optimization -- RFO/linear search
 Update second derivatives using D2CorX and points    1    2
 DE= -2.79D-02 DEPred=-2.65D-02 R= 1.05D+00
 TightC=F SS=  1.41D+00  RLast= 3.25D-01 DXNew= 5.0454D-01 9.7366D-01
 Trust test= 1.05D+00 RLast= 3.25D-01 DXMaxT set to 5.05D-01
 ITU=  1  0
 Use linear search instead of GDIIS.
     Eigenvalues ---    0.01220   0.01459   0.01771   0.01793   0.01912
     Eigenvalues ---    0.01926   0.02007   0.02135   0.02142   0.02178
     Eigenvalues ---    0.02517   0.03328   0.04052   0.05179   0.05665
     Eigenvalues ---    0.06695   0.07431   0.08087   0.10307   0.13977
     Eigenvalues ---    0.15688   0.15981   0.15999   0.16000   0.16142
     Eigenvalues ---    0.17665   0.21999   0.32017   0.34075   0.34877
     Eigenvalues ---    0.34900   0.35350   0.35419   0.35850   0.36106
     Eigenvalues ---    0.36898   0.37033   0.37829   0.38895   0.40549
     Eigenvalues ---    0.43733   0.46497   0.470191000.000001000.00000
     Eigenvalues --- 1000.000001000.000001000.000001000.000001000.00000
     Eigenvalues --- 1000.000001000.000001000.000001000.000001000.00000
     Eigenvalues --- 1000.000001000.000001000.000001000.000001000.00000
     Eigenvalues --- 1000.000001000.000001000.000001000.000001000.00000
     Eigenvalues --- 1000.000001000.000001000.000001000.000001000.00000
     Eigenvalues --- 1000.000001000.000001000.000001000.000001000.00000
     Eigenvalues --- 1000.000001000.000001000.000001000.000001000.00000
     Eigenvalues --- 1000.000001000.000001000.000001000.000001000.00000
     Eigenvalues --- 1000.000001000.000001000.000001000.000001000.00000
     Eigenvalues --- 1000.000001000.000001000.000001000.000001000.00000
     Eigenvalues --- 1000.000001000.000001000.000001000.000001000.00000
     Eigenvalues --- 1000.00000
 RFO step:  Lambda=-4.70633049D-03 EMin= 1.21982240D-02
 Quartic linear search produced a step of  0.53180.
 Iteration  1 RMS(Cart)=  0.04104579 RMS(Int)=  0.00234976
 Iteration  2 RMS(Cart)=  0.00202981 RMS(Int)=  0.00145999
 Iteration  3 RMS(Cart)=  0.00000526 RMS(Int)=  0.00145998
 Iteration  4 RMS(Cart)=  0.00000001 RMS(Int)=  0.00145998
 Iteration  1 RMS(Cart)=  0.00013403 RMS(Int)=  0.00002671
 Iteration  2 RMS(Cart)=  0.00001488 RMS(Int)=  0.00002809
 Iteration  3 RMS(Cart)=  0.00000239 RMS(Int)=  0.00002852
 Iteration  4 RMS(Cart)=  0.00000049 RMS(Int)=  0.00002860
 Variable       Old X    -DE/DX   Delta X   Delta X   Delta X     New X
                                 (Linear)    (Quad)   (Total)
    R1        2.59368  -0.01375  -0.02938  -0.01942  -0.04895   2.54473
    R2        2.04450  -0.00150  -0.00740   0.00095  -0.00645   2.03805
    R3        2.78289   0.02193   0.08124  -0.00298   0.07855   2.86143
    R4        6.42507   0.00218   0.00000   0.00000  -0.00000   6.42507
    R5        2.75807   0.01031   0.02476   0.00143   0.02569   2.78376
    R6        2.04221   0.00012  -0.00415   0.00468   0.00053   2.04274
    R7        2.59369  -0.01384  -0.02947  -0.01964  -0.04929   2.54440
    R8        2.04220   0.00012  -0.00415   0.00467   0.00053   2.04273
    R9        2.04448  -0.00150  -0.00738   0.00095  -0.00643   2.03805
   R10        2.78284   0.02207   0.08121  -0.00247   0.07909   2.86193
   R11        6.42507   0.00254  -0.00000   0.00000   0.00000   6.42507
   R12        2.07654   0.00222   0.02900  -0.02019   0.00881   2.08535
   R13        2.06714   0.00303   0.02400  -0.00949   0.01356   2.08070
   R14        5.56158  -0.00149  -0.02272  -0.07270  -0.09670   5.46488
   R15        5.70112  -0.00088  -0.00667   0.01312   0.00520   5.70632
   R16        5.47096  -0.00055  -0.01405  -0.08957  -0.10286   5.36809
   R17        2.04344   0.00191   0.00881  -0.00106   0.00775   2.05119
   R18        2.04161   0.00283   0.01725  -0.00312   0.01540   2.05701
   R19        2.53526  -0.00718  -0.03773   0.01101  -0.02641   2.50885
   R20        2.04359   0.00305   0.01683  -0.00678   0.01075   2.05434
   R21        2.04337   0.00205   0.00987  -0.00157   0.00830   2.05166
    A1        2.23579  -0.00238  -0.01853  -0.01209  -0.03074   2.20505
    A2        1.89113   0.00064  -0.00060   0.02288   0.02240   1.91353
    A3        2.15624   0.00174   0.01911  -0.01088   0.00807   2.16431
    A4        1.89964   0.00382   0.01535  -0.00837   0.00634   1.90598
    A5        2.19529  -0.00063  -0.00612   0.01452   0.00871   2.20400
    A6        2.18825  -0.00319  -0.00923  -0.00615  -0.01507   2.17318
    A7        1.89965   0.00378   0.01537  -0.00871   0.00601   1.90566
    A8        2.18826  -0.00318  -0.00923  -0.00608  -0.01499   2.17327
    A9        2.19527  -0.00060  -0.00615   0.01478   0.00896   2.20423
   A10        2.23592  -0.00240  -0.01860  -0.01219  -0.03088   2.20504
   A11        1.89113   0.00067  -0.00055   0.02305   0.02260   1.91373
   A12        2.15610   0.00173   0.01913  -0.01095   0.00804   2.16414
   A13        1.84311  -0.00891  -0.02964  -0.02899  -0.05780   1.78532
   A14        1.94100   0.00243   0.01460   0.00414   0.01903   1.96002
   A15        1.93497   0.00356   0.01136   0.00627   0.01702   1.95199
   A16        1.94327   0.00236   0.01578   0.00248   0.01825   1.96152
   A17        1.92925   0.00365   0.00835   0.00878   0.01718   1.94643
   A18        1.87334  -0.00286  -0.01983   0.00736  -0.01247   1.86087
   A19        2.16093  -0.00106  -0.00573  -0.00437  -0.01076   2.15017
   A20        1.93541  -0.00187  -0.00780   0.00476  -0.00305   1.93236
   A21        2.19947  -0.00232  -0.00846  -0.00964  -0.01799   2.18148
   A22        0.72255  -0.00014   0.00025   0.00954   0.00960   0.73214
   A23        0.86314   0.00114   0.00615   0.02775   0.03252   0.89566
   A24        2.07117  -0.00482  -0.01493  -0.02969  -0.04888   2.02229
   A25        2.10032   0.00285   0.00796   0.02223   0.02579   2.12611
   A26        2.10485   0.00225   0.00968   0.02191   0.02966   2.13451
   A27        1.48503  -0.00093  -0.00240   0.02631   0.02386   1.50889
   A28        1.36963   0.00003  -0.00237  -0.01287  -0.01535   1.35428
   A29        2.22470  -0.00370  -0.01943  -0.05411  -0.07266   2.15204
   A30        2.10533   0.00289   0.01104   0.01548   0.02078   2.12612
   A31        2.09208   0.00175   0.00784   0.03287   0.03717   2.12925
   A32        2.07495  -0.00384  -0.01260  -0.02793  -0.04736   2.02759
    D1       -3.14073  -0.00041   0.00040  -0.00750  -0.00624   3.13622
    D2       -0.00228  -0.00023  -0.00126  -0.00873  -0.00965  -0.01192
    D3        0.00921  -0.00023   0.00489   0.00511   0.01065   0.01986
    D4       -3.13552  -0.00005   0.00324   0.00388   0.00724  -3.12828
    D5       -0.01395   0.00045  -0.00745  -0.00837  -0.01590  -0.02985
    D6        2.09631  -0.00086   0.00194  -0.02101  -0.01940   2.07691
    D7       -2.10403  -0.00052  -0.00613  -0.00491  -0.01080  -2.11483
    D8        3.13552   0.00064  -0.00321   0.00356   0.00074   3.13626
    D9       -1.03740  -0.00067   0.00618  -0.00908  -0.00276  -1.04016
   D10        1.04544  -0.00032  -0.00189   0.00702   0.00584   1.05128
   D11       -0.00051   0.00001  -0.00023   0.00065   0.00045  -0.00006
   D12        3.13878   0.00016  -0.00151  -0.00288  -0.00487   3.13390
   D13       -3.13898  -0.00018   0.00142   0.00182   0.00373  -3.13524
   D14        0.00031  -0.00003   0.00013  -0.00171  -0.00159  -0.00128
   D15       -3.14090   0.00036   0.00030   0.00484   0.00414  -3.13676
   D16       -0.00841   0.00021  -0.00454  -0.00612  -0.01136  -0.01977
   D17        0.00301   0.00022   0.00158   0.00843   0.00963   0.01263
   D18        3.13550   0.00007  -0.00325  -0.00253  -0.00588   3.12962
   D19        0.01363  -0.00044   0.00731   0.00876   0.01618   0.02982
   D20       -2.09515   0.00084  -0.00131   0.02038   0.01925  -2.07590
   D21        2.10748   0.00050   0.00798   0.00378   0.01122   2.11870
   D22       -3.13655  -0.00061   0.00275  -0.00160   0.00087  -3.13568
   D23        1.03785   0.00068  -0.00587   0.01002   0.00393   1.04178
   D24       -1.04271   0.00033   0.00342  -0.00658  -0.00410  -1.04680
   D25        0.47308  -0.00291  -0.01041  -0.01709  -0.02655   0.44653
   D26        1.25336  -0.00399  -0.01382  -0.00226  -0.01534   1.23802
   D27        1.54281  -0.00278  -0.00823   0.01315   0.00358   1.54639
   D28       -1.56469   0.00365   0.01394   0.00940   0.02389  -1.54080
   D29       -0.78441   0.00256   0.01053   0.02423   0.03510  -0.74931
   D30       -0.49495   0.00378   0.01612   0.03964   0.05402  -0.44093
   D31        2.59611   0.00038   0.00194  -0.00352  -0.00087   2.59524
   D32       -2.90680  -0.00071  -0.00146   0.01131   0.01034  -2.89646
   D33       -2.61734   0.00051   0.00412   0.02671   0.02926  -2.58808
   D34        0.91998   0.00020   0.00481   0.04099   0.04474   0.96472
   D35       -0.53986   0.00222   0.01102   0.01990   0.02951  -0.51035
   D36       -1.01746   0.00224   0.01027   0.04054   0.04954  -0.96792
   D37       -1.62311  -0.00022   0.00288  -0.00247   0.00176  -1.62135
   D38        0.45297   0.00133   0.00714   0.01926   0.02545   0.47841
   D39        0.43444   0.00020   0.00254  -0.01587  -0.01275   0.42168
   D40        2.51051   0.00175   0.00680   0.00587   0.01094   2.52144
   D41       -2.17352   0.00301   0.02465   0.11076   0.12983  -2.04369
   D42        1.09307   0.00029   0.00274  -0.02217  -0.02007   1.07300
   D43        2.19095  -0.00212  -0.01785  -0.09057  -0.11085   2.08010
   D44       -3.00415  -0.00362  -0.03102  -0.17263  -0.20559   3.07345
   D45       -0.02183   0.00187   0.00462  -0.02594  -0.02213  -0.04396
   D46       -1.07774   0.00009   0.00224   0.04088   0.04261  -1.03513
   D47        0.01035  -0.00141  -0.01094  -0.04119  -0.05213  -0.04178
   D48        2.99267   0.00408   0.02470   0.10551   0.13133   3.12399
         Item               Value     Threshold  Converged?
 Maximum Force            0.022022     0.000450     NO 
 RMS     Force            0.004461     0.000300     NO 
 Maximum Displacement     0.192450     0.001800     NO 
 RMS     Displacement     0.041241     0.001200     NO 
 Predicted change in Energy=-4.150892D-03
 GradGradGradGradGradGradGradGradGradGradGradGradGradGradGradGradGradGrad

                          Input orientation:                          
 ---------------------------------------------------------------------
 Center     Atomic      Atomic             Coordinates (Angstroms)
 Number     Number       Type             X           Y           Z
 ---------------------------------------------------------------------
      1          6           0        1.966283   -1.386323    0.044234
      2          6           0        3.310852   -1.337411   -0.011465
      3          6           0        3.745615    0.069988    0.004287
      4          6           0        2.662388    0.867030    0.069380
      5          1           0        1.358611   -2.277319    0.043653
      6          1           0        3.980511   -2.184872   -0.054643
      7          1           0        4.776807    0.392929   -0.024649
      8          1           0        2.662734    1.945294    0.091303
      9          6           0        1.406691    0.020378    0.073680
     10          1           0        0.755379    0.230164   -0.792078
     11          1           0        0.800590    0.201331    0.974916
     12          6           0        2.207649   -0.928048    3.404550
     13          1           0        2.945830   -1.718807    3.315248
     14          1           0        1.168978   -1.250702    3.448563
     15          6           0        2.554040    0.353367    3.428608
     16          1           0        1.811895    1.147292    3.455205
     17          1           0        3.592394    0.669232    3.400622
 ---------------------------------------------------------------------
                    Distance matrix (angstroms):
                    1          2          3          4          5
     1  C    0.000000
     2  C    1.346611   0.000000
     3  C    2.299665   1.473105   0.000000
     4  C    2.358558   2.299260   1.346437   0.000000
     5  H    1.078489   2.167421   3.348013   3.404031   0.000000
     6  H    2.169003   1.080971   2.267828   3.326700   2.625370
     7  H    3.327090   2.267878   1.080965   2.168958   4.338082
     8  H    3.403958   3.347651   2.167250   1.078487   4.419669
     9  C    1.514205   2.340228   2.340479   1.514467   2.298397
    10  H    2.186032   3.097917   3.098607   2.187325   2.711053
    11  H    2.178452   3.105171   3.103634   2.174728   2.705983
    12  C    3.400000   3.613004   3.863056   3.814767   3.719816
    13  H    3.430685   3.368342   3.847325   4.159633   3.678932
    14  H    3.499078   4.070250   4.499591   4.258396   3.561365
    15  C    3.850451   3.907121   3.636774   3.400000   4.450560
    16  H    4.251796   4.520887   4.099840   3.502242   4.855112
    17  H    4.258507   3.968402   3.452196   3.464275   4.994115
                    6          7          8          9         10
     6  H    0.000000
     7  H    2.698156   0.000000
     8  H    4.337754   2.625373   0.000000
     9  C    3.391776   3.392070   2.298533   0.000000
    10  H    4.096058   4.097233   2.712939   1.103519   0.000000
    11  H    4.106806   4.104405   2.699956   1.101058   1.767807
    12  C    4.085176   4.483856   4.409173   3.554679   4.589361
    13  H    3.555833   4.355091   4.888722   3.987666   5.046453
    14  H    4.588011   5.270783   4.869999   3.614138   4.510772
    15  C    4.539881   4.106975   3.699141   3.561297   4.589613
    16  H    5.303324   4.633482   3.560418   3.587316   4.471774
    17  H    4.498377   3.634784   3.666632   4.033218   5.081354
                   11         12         13         14         15
    11  H    0.000000
    12  C    3.026291   0.000000
    13  H    3.710275   1.085442   0.000000
    14  H    2.891892   1.088522   1.842308   0.000000
    15  C    3.019653   1.327626   2.111932   2.119395   0.000000
    16  H    2.840672   2.113344   3.085436   2.482692   1.087107
    17  H    3.727888   2.113962   2.475492   3.092150   1.085694
                   16         17
    16  H    0.000000
    17  H    1.844369   0.000000
 Stoichiometry    C7H10
 Framework group  C1[X(C7H10)]
 Deg. of freedom    45
 Full point group                 C1      NOp   1
 Largest Abelian subgroup         C1      NOp   1
 Largest concise Abelian subgroup C1      NOp   1
                         Standard orientation:                         
 ---------------------------------------------------------------------
 Center     Atomic      Atomic             Coordinates (Angstroms)
 Number     Number       Type             X           Y           Z
 ---------------------------------------------------------------------
      1          6           0       -1.008433    1.164697   -0.349985
      2          6           0       -1.193776    0.752350    0.918471
      3          6           0       -1.172148   -0.720082    0.957406
      4          6           0       -0.973881   -1.192784   -0.287639
      5          1           0       -0.980240    2.187145   -0.691957
      6          1           0       -1.331497    1.385961    1.783380
      7          1           0       -1.290747   -1.310941    1.854793
      8          1           0       -0.914936   -2.230504   -0.575383
      9          6           0       -0.875865   -0.037116   -1.261516
     10          1           0       -1.665951   -0.068022   -2.031297
     11          1           0        0.086079   -0.040791   -1.797222
     12          6           0        2.325905    0.680472    0.105774
     13          1           0        2.137556    1.240607    1.016246
     14          1           0        2.460240    1.273185   -0.797290
     15          6           0        2.360101   -0.646669    0.094879
     16          1           0        2.486581   -1.209192   -0.826735
     17          1           0        2.241503   -1.232655    1.001128
 ---------------------------------------------------------------------
 Rotational constants (GHZ):           3.6661125           1.7468618           1.6582466
 Standard basis: 3-21G (6D, 7F)
 There are    83 symmetry adapted cartesian basis functions of A   symmetry.
 There are    83 symmetry adapted basis functions of A   symmetry.
    83 basis functions,   135 primitive gaussians,    83 cartesian basis functions
    26 alpha electrons       26 beta electrons
       nuclear repulsion energy       270.9589640629 Hartrees.
 NAtoms=   17 NActive=   17 NUniq=   17 SFac= 1.00D+00 NAtFMM=   60 NAOKFM=F Big=F
 Integral buffers will be    131072 words long.
 Raffenetti 2 integral format.
 Two-electron integral symmetry is turned on.
 One-electron integrals computed using PRISM.
 NBasis=    83 RedAO= T EigKep=  4.45D-03  NBF=    83
 NBsUse=    83 1.00D-06 EigRej= -1.00D+00 NBFU=    83
 Initial guess from the checkpoint file:  "C3.chk"
 B after Tr=     0.000000   -0.000000   -0.000000
         Rot=    0.999930   -0.005080    0.009267   -0.005236 Ang=  -1.35 deg.
 ExpMin= 1.83D-01 ExpMax= 1.72D+02 ExpMxC= 1.72D+02 IAcc=3 IRadAn=         5 AccDes= 0.00D+00
 Harris functional with IExCor=  402 and IRadAn=       5 diagonalized for initial guess.
 HarFok:  IExCor=  402 AccDes= 0.00D+00 IRadAn=         5 IDoV= 1 UseB2=F ITyADJ=14
 ICtDFT=  3500011 ScaDFX=  1.000000  1.000000  1.000000  1.000000
 FoFCou: FMM=F IPFlag=           0 FMFlag=      100000 FMFlg1=           0
         NFxFlg=           0 DoJE=T BraDBF=F KetDBF=T FulRan=T
         wScrn=  0.000000 ICntrl=       500 IOpCl=  0 I1Cent=   200000004 NGrid=           0
         NMat0=    1 NMatS0=      1 NMatT0=    0 NMatD0=    1 NMtDS0=    0 NMtDT0=    0
 Petite list used in FoFCou.
 Keep R1 ints in memory in canonical form, NReq=7891700.
 Requested convergence on RMS density matrix=1.00D-08 within 128 cycles.
 Requested convergence on MAX density matrix=1.00D-06.
 Requested convergence on             energy=1.00D-06.
 No special actions if energy rises.
 Integral accuracy reduced to 1.0D-05 until final iterations.
 Initial convergence to 1.0D-05 achieved.  Increase integral accuracy.
 SCF Done:  E(RB3LYP) =  -271.197794781     A.U. after   12 cycles
            NFock= 12  Conv=0.33D-08     -V/T= 2.0091
 Calling FoFJK, ICntrl=      2127 FMM=F ISym2X=0 I1Cent= 0 IOpClX= 0 NMat=1 NMatS=1 NMatT=0.
 ***** Axes restored to original set *****
 -------------------------------------------------------------------
 Center     Atomic                   Forces (Hartrees/Bohr)
 Number     Number              X              Y              Z
 -------------------------------------------------------------------
      1        6          -0.004156994   -0.004679621   -0.002267676
      2        6           0.003363390   -0.002342295   -0.000043548
      3        6           0.004070166    0.000047253   -0.000023919
      4        6          -0.000724202    0.006266516   -0.002662270
      5        1          -0.001799679   -0.000696737    0.000062269
      6        1           0.000287292    0.000093047    0.000040873
      7        1           0.000165892   -0.000260117    0.000052528
      8        1          -0.001107018    0.001582556    0.000110423
      9        6          -0.005737506    0.002059312    0.002206155
     10        1           0.003451927   -0.000981987    0.000375203
     11        1           0.002675899   -0.001161328   -0.000554501
     12        6          -0.001500667   -0.003887196    0.000138877
     13        1          -0.000144593    0.000206306    0.001926343
     14        1           0.001405784    0.001012056   -0.000787973
     15        6          -0.000275146    0.003161780    0.000292671
     16        1           0.000739901   -0.000221161    0.002468915
     17        1          -0.000714448   -0.000198385   -0.001334368
 -------------------------------------------------------------------
 Cartesian Forces:  Max     0.006266516 RMS     0.002169558

 GradGradGradGradGradGradGradGradGradGradGradGradGradGradGradGradGradGrad
 Berny optimization.
 Using GEDIIS/GDIIS optimizer.
 FormGI is forming the generalized inverse of G from B-inverse, IUseBI=4.
 Internal  Forces:  Max     0.004866404 RMS     0.001227869
 Search for a local minimum.
 Step number   3 out of a maximum of  102
 All quantities printed in internal units (Hartrees-Bohrs-Radians)
 Mixed Optimization -- RFO/linear search
 Update second derivatives using D2CorX and points    2    3
 DE= -4.64D-03 DEPred=-4.15D-03 R= 1.12D+00
 TightC=F SS=  1.41D+00  RLast= 4.16D-01 DXNew= 8.4853D-01 1.2469D+00
 Trust test= 1.12D+00 RLast= 4.16D-01 DXMaxT set to 8.49D-01
 ITU=  1  1  0
 Use linear search instead of GDIIS.
     Eigenvalues ---    0.01215   0.01440   0.01717   0.01797   0.01915
     Eigenvalues ---    0.01927   0.02108   0.02140   0.02144   0.02176
     Eigenvalues ---    0.02606   0.03288   0.03907   0.05063   0.05826
     Eigenvalues ---    0.06447   0.07471   0.07940   0.10311   0.13761
     Eigenvalues ---    0.15597   0.15991   0.15999   0.15999   0.16176
     Eigenvalues ---    0.18700   0.21995   0.31949   0.33251   0.34150
     Eigenvalues ---    0.34899   0.35003   0.35419   0.35464   0.35986
     Eigenvalues ---    0.36889   0.37017   0.37345   0.38119   0.40540
     Eigenvalues ---    0.44131   0.46437   0.475571000.000001000.00000
     Eigenvalues --- 1000.000001000.000001000.000001000.000001000.00000
     Eigenvalues --- 1000.000001000.000001000.000001000.000001000.00000
     Eigenvalues --- 1000.000001000.000001000.000001000.000001000.00000
     Eigenvalues --- 1000.000001000.000001000.000001000.000001000.00000
     Eigenvalues --- 1000.000001000.000001000.000001000.000001000.00000
     Eigenvalues --- 1000.000001000.000001000.000001000.000001000.00000
     Eigenvalues --- 1000.000001000.000001000.000001000.000001000.00000
     Eigenvalues --- 1000.000001000.000001000.000001000.000001000.00000
     Eigenvalues --- 1000.000001000.000001000.000001000.000001000.00000
     Eigenvalues --- 1000.000001000.000001000.000001000.000001000.00000
     Eigenvalues --- 1000.000001000.000001000.000001000.000001000.00000
     Eigenvalues --- 1000.00000
 RFO step:  Lambda=-6.33865704D-04 EMin= 1.21475339D-02
 Quartic linear search produced a step of -0.10187.
 Iteration  1 RMS(Cart)=  0.01129604 RMS(Int)=  0.00020995
 Iteration  2 RMS(Cart)=  0.00016291 RMS(Int)=  0.00011895
 Iteration  3 RMS(Cart)=  0.00000003 RMS(Int)=  0.00011895
 Iteration  1 RMS(Cart)=  0.00000128 RMS(Int)=  0.00000031
 Iteration  2 RMS(Cart)=  0.00000020 RMS(Int)=  0.00000034
 Variable       Old X    -DE/DX   Delta X   Delta X   Delta X     New X
                                 (Linear)    (Quad)   (Total)
    R1        2.54473   0.00486   0.00499   0.00329   0.00829   2.55302
    R2        2.03805   0.00159   0.00066   0.00323   0.00389   2.04194
    R3        2.86143   0.00304  -0.00800   0.01570   0.00767   2.86911
    R4        6.42507   0.00090   0.00000   0.00000  -0.00000   6.42507
    R5        2.78376   0.00400  -0.00262   0.01328   0.01070   2.79447
    R6        2.04274   0.00010  -0.00005   0.00034   0.00029   2.04303
    R7        2.54440   0.00487   0.00502   0.00326   0.00830   2.55270
    R8        2.04273   0.00008  -0.00005   0.00028   0.00023   2.04295
    R9        2.03805   0.00158   0.00066   0.00322   0.00388   2.04192
   R10        2.86193   0.00304  -0.00806   0.01579   0.00771   2.86964
   R11        6.42507   0.00115  -0.00000   0.00000   0.00000   6.42507
   R12        2.08535  -0.00252  -0.00090  -0.00494  -0.00583   2.07951
   R13        2.08070  -0.00125  -0.00138  -0.00170  -0.00307   2.07762
   R14        5.46488   0.00035   0.00985  -0.02363  -0.01369   5.45120
   R15        5.70632  -0.00070  -0.00053  -0.02487  -0.02544   5.68088
   R16        5.36809   0.00098   0.01048   0.04143   0.05188   5.41997
   R17        2.05119  -0.00041  -0.00079   0.00004  -0.00075   2.05044
   R18        2.05701  -0.00167  -0.00157  -0.00246  -0.00416   2.05285
   R19        2.50885   0.00231   0.00269   0.00175   0.00445   2.51330
   R20        2.05434  -0.00089  -0.00109  -0.00012  -0.00113   2.05320
   R21        2.05166  -0.00071  -0.00085  -0.00061  -0.00145   2.05021
    A1        2.20505   0.00186   0.00313   0.00624   0.00938   2.21444
    A2        1.91353  -0.00149  -0.00228  -0.00471  -0.00702   1.90650
    A3        2.16431  -0.00037  -0.00082  -0.00143  -0.00224   2.16207
    A4        1.90598   0.00034  -0.00065   0.00317   0.00255   1.90854
    A5        2.20400   0.00012  -0.00089   0.00163   0.00072   2.20473
    A6        2.17318  -0.00046   0.00154  -0.00478  -0.00326   2.16992
    A7        1.90566   0.00036  -0.00061   0.00323   0.00265   1.90831
    A8        2.17327  -0.00048   0.00153  -0.00491  -0.00340   2.16987
    A9        2.20423   0.00012  -0.00091   0.00169   0.00076   2.20499
   A10        2.20504   0.00188   0.00315   0.00634   0.00950   2.21453
   A11        1.91373  -0.00151  -0.00230  -0.00476  -0.00710   1.90663
   A12        2.16414  -0.00037  -0.00082  -0.00145  -0.00226   2.16188
   A13        1.78532   0.00231   0.00589   0.00351   0.00931   1.79463
   A14        1.96002  -0.00132  -0.00194  -0.01038  -0.01232   1.94771
   A15        1.95199  -0.00089  -0.00173   0.00147  -0.00027   1.95172
   A16        1.96152  -0.00145  -0.00186  -0.01199  -0.01386   1.94767
   A17        1.94643  -0.00063  -0.00175   0.00521   0.00346   1.94989
   A18        1.86087   0.00181   0.00127   0.01136   0.01268   1.87355
   A19        2.15017   0.00063   0.00110   0.00495   0.00611   2.15628
   A20        1.93236   0.00080   0.00031  -0.00008   0.00027   1.93263
   A21        2.18148   0.00075   0.00183   0.00189   0.00347   2.18496
   A22        0.73214   0.00004  -0.00098   0.00340   0.00244   0.73459
   A23        0.89566  -0.00013  -0.00331   0.00062  -0.00260   0.89306
   A24        2.02229   0.00028   0.00498  -0.00532   0.00007   2.02237
   A25        2.12611   0.00031  -0.00263   0.00456   0.00236   2.12847
   A26        2.13451  -0.00058  -0.00302   0.00077  -0.00220   2.13231
   A27        1.50889   0.00022  -0.00243   0.00068  -0.00175   1.50715
   A28        1.35428   0.00015   0.00156   0.00025   0.00185   1.35613
   A29        2.15204  -0.00070   0.00740  -0.01829  -0.01098   2.14105
   A30        2.12612   0.00001  -0.00212   0.00523   0.00334   2.12945
   A31        2.12925   0.00011  -0.00379   0.00244  -0.00112   2.12812
   A32        2.02759  -0.00011   0.00482  -0.00731  -0.00204   2.02555
    D1        3.13622  -0.00021   0.00064  -0.00382  -0.00318   3.13304
[...]
 ! A32   A(16,15,17)           116.7041         -DE/DX =    0.0                 !
 ! D1    D(5,1,2,3)            179.8738         -DE/DX =   -0.0001              !
 ! D2    D(5,1,2,6)             -0.4312         -DE/DX =    0.0                 !
 ! D3    D(9,1,2,3)              0.9119         -DE/DX =   -0.0001              !
 ! D4    D(9,1,2,6)           -179.3932         -DE/DX =    0.0                 !
 ! D5    D(2,1,9,4)             -1.1812         -DE/DX =    0.0001              !
 ! D6    D(2,1,9,10)           118.2845         -DE/DX =    0.0                 !
 ! D7    D(2,1,9,11)          -120.396          -DE/DX =   -0.0001              !
 ! D8    D(5,1,9,4)            179.8123         -DE/DX =    0.0001              !
 ! D9    D(5,1,9,10)           -60.7221         -DE/DX =    0.0                 !
 ! D10   D(5,1,9,11)            60.5975         -DE/DX =   -0.0001              !
 ! D11   D(1,2,3,4)             -0.2287         -DE/DX =    0.0                 !
 ! D12   D(1,2,3,7)            179.6826         -DE/DX =    0.0001              !
 ! D13   D(6,2,3,4)           -179.9325         -DE/DX =   -0.0001              !
 ! D14   D(6,2,3,7)             -0.0213         -DE/DX =    0.0                 !
 ! D15   D(2,3,4,8)           -179.3485         -DE/DX =    0.0001              !
 ! D16   D(2,3,4,9)             -0.5569         -DE/DX =    0.0001              !
 ! D17   D(7,3,4,8)              0.7429         -DE/DX =    0.0                 !
 ! D18   D(7,3,4,9)            179.5346         -DE/DX =    0.0                 !
 ! D19   D(3,4,9,1)              1.0383         -DE/DX =   -0.0001              !
 ! D20   D(3,4,9,10)          -118.3241         -DE/DX =    0.0                 !
 ! D21   D(3,4,9,11)           120.4824         -DE/DX =    0.0002              !
 ! D22   D(8,4,9,1)            179.8829         -DE/DX =   -0.0001              !
 ! D23   D(8,4,9,10)            60.5205         -DE/DX =    0.0001              !
 ! D24   D(8,4,9,11)           -60.6731         -DE/DX =    0.0002              !
 ! D25   D(1,9,11,14)           37.4004         -DE/DX =    0.0                 !
 ! D26   D(1,9,11,15)           81.0707         -DE/DX =    0.0001              !
 ! D27   D(1,9,11,16)           88.5079         -DE/DX =    0.0002              !
 ! D28   D(4,9,11,14)          -76.605          -DE/DX =   -0.0001              !
 ! D29   D(4,9,11,15)          -32.9347         -DE/DX =    0.0                 !
 ! D30   D(4,9,11,16)          -25.4975         -DE/DX =    0.0001              !
 ! D31   D(10,9,11,14)         160.4117         -DE/DX =   -0.0001              !
 ! D32   D(10,9,11,15)        -155.918          -DE/DX =    0.0                 !
 ! D33   D(10,9,11,16)        -148.4807         -DE/DX =    0.0001              !
 ! D34   D(9,11,14,12)          53.5063         -DE/DX =    0.0002              !
 ! D35   D(15,11,14,12)        -37.5433         -DE/DX =    0.0                 !
 ! D36   D(16,11,14,12)        -59.9808         -DE/DX =    0.0                 !
 ! D37   D(9,11,15,12)         -88.1857         -DE/DX =   -0.0001              !
 ! D38   D(9,11,15,17)          40.3927         -DE/DX =   -0.0001              !
 ! D39   D(14,11,15,12)         23.4902         -DE/DX =    0.0                 !
 ! D40   D(14,11,15,17)        152.0686         -DE/DX =    0.0                 !
 ! D41   D(13,12,14,11)        -80.1723         -DE/DX =    0.0                 !
 ! D42   D(15,12,14,11)         99.3775         -DE/DX =   -0.0001              !
 ! D43   D(13,12,15,11)         63.723          -DE/DX =    0.0                 !
 ! D44   D(13,12,15,16)        179.5768         -DE/DX =    0.0                 !
 ! D45   D(13,12,15,17)         -0.8575         -DE/DX =    0.0                 !
 ! D46   D(14,12,15,11)       -115.806          -DE/DX =    0.0001              !
 ! D47   D(14,12,15,16)          0.0478         -DE/DX =    0.0                 !
 ! D48   D(14,12,15,17)        179.6135         -DE/DX =    0.0                 !
 --------------------------------------------------------------------------------
 GradGradGradGradGradGradGradGradGradGradGradGradGradGradGradGradGradGrad

                          Input orientation:                          
 ---------------------------------------------------------------------
 Center     Atomic      Atomic             Coordinates (Angstroms)
 Number     Number       Type             X           Y           Z
 ---------------------------------------------------------------------
      1          6           0        1.997609   -1.478864   -0.025417
      2          6           0        3.348283   -1.457635   -0.052707
      3          6           0        3.817410   -0.057096    0.055121
      4          6           0        2.749301    0.765755    0.142291
      5          1           0        1.358228   -2.347901   -0.086733
      6          1           0        4.004325   -2.313281   -0.134235
      7          1           0        4.858109    0.235410    0.062322
      8          1           0        2.761023    1.843336    0.221613
      9          6           0        1.473142   -0.056952    0.082703
     10          1           0        0.860537    0.211573   -0.789768
     11          1           0        0.868312    0.081956    0.987271
     12          6           0        2.179466   -0.753048    3.291225
     13          1           0        2.620107   -1.246568    2.434135
     14          1           0        1.579688   -1.367534    3.957728
     15          6           0        2.356936    0.547542    3.512518
     16          1           0        1.913385    1.053414    4.366049
     17          1           0        2.961384    1.153415    2.847297
 ---------------------------------------------------------------------
                    Distance matrix (angstroms):
                    1          2          3          4          5
     1  C    0.000000
     2  C    1.351116   0.000000
     3  C    2.310754   1.480951   0.000000
     4  C    2.373074   2.310902   1.351125   0.000000
     5  H    1.080645   2.180378   3.363850   3.417951   0.000000
     6  H    2.176006   1.081281   2.271820   3.336468   2.646749
     7  H    3.336000   2.271389   1.081049   2.175944   4.352572
     8  H    3.417724   3.364006   2.180668   1.080560   4.430505
     9  C    1.519404   2.344440   2.344430   1.519532   2.300078
    10  H    2.175946   3.085189   3.086927   2.177907   2.700530
    11  H    2.176467   3.098733   3.096032   2.172485   2.701427
    12  C    3.400000   3.611711   3.693180   3.542212   3.824734
    13  H    2.547718   2.599841   2.916862   3.052652   3.026558
    14  H    4.006558   4.384021   4.685615   4.525095   4.167473
    15  C    4.092973   4.208840   3.801600   3.400000   4.726057
    16  H    5.069961   5.281070   4.841760   4.315279   5.630667
    17  H    4.013756   3.921389   3.161386   2.740861   4.841265
                    6          7          8          9         10
     6  H    0.000000
     7  H    2.695072   0.000000
     8  H    4.353148   2.647370   0.000000
     9  C    3.397789   3.397630   2.299789   0.000000
    10  H    4.085096   4.087445   2.701367   1.099362   0.000000
    11  H    4.102379   4.098482   2.696488   1.096977   1.781777
    12  C    4.183087   4.310220   4.062258   3.358282   4.395972
    13  H    3.106519   3.581956   3.802975   2.874012   3.951685
    14  H    4.849481   5.337758   5.065945   4.092041   5.054649
    15  C    4.919046   4.272838   3.559835   3.593067   4.567466
    16  H    5.996601   5.278503   4.303350   4.446772   5.329131
    17  H    4.689908   3.492332   2.722197   3.364941   4.304516
                   11         12         13         14         15
    11  H    0.000000
    12  C    2.779309   0.000000
    13  H    2.631953   1.082742   0.000000
    14  H    3.380930   1.086992   1.848903   0.000000
    15  C    2.968104   1.331165   2.109739   2.114200   0.000000
    16  H    3.667703   2.118808   3.085719   2.477714   1.086811
    17  H    2.998110   2.107859   2.459083   3.081773   1.083955
                   16         17
    16  H    0.000000
    17  H    1.847947   0.000000
 Stoichiometry    C7H10
 Framework group  C1[X(C7H10)]
 Deg. of freedom    45
 Full point group                 C1      NOp   1
 Largest Abelian subgroup         C1      NOp   1
 Largest concise Abelian subgroup C1      NOp   1
                         Standard orientation:                         
 ---------------------------------------------------------------------
 Center     Atomic      Atomic             Coordinates (Angstroms)
 Number     Number       Type             X           Y           Z
 ---------------------------------------------------------------------
      1          6           0       -1.201740    1.095861   -0.378404
      2          6           0       -1.436528    0.622678    0.865175
      3          6           0       -1.137050   -0.827232    0.901094
      4          6           0       -0.726692   -1.228496   -0.322071
      5          1           0       -1.327374    2.112248   -0.723321
      6          1           0       -1.782907    1.192528    1.716328
      7          1           0       -1.237608   -1.445989    1.781829
      8          1           0       -0.444875   -2.228245   -0.619883
      9          6           0       -0.741610   -0.043093   -1.272637
     10          1           0       -1.438910   -0.204079   -2.107174
     11          1           0        0.256452    0.147056   -1.686247
     12          6           0        2.121878    0.791833    0.270538
     13          1           0        1.127572    0.993708    0.648600
     14          1           0        2.743929    1.652637    0.038972
     15          6           0        2.557960   -0.452765    0.089399
     16          1           0        3.551647   -0.665672   -0.295847
     17          1           0        1.934763   -1.306913    0.328179
 ---------------------------------------------------------------------
 Rotational constants (GHZ):           3.8421647           1.7169671           1.6217820

 **********************************************************************

            Population analysis using the SCF Density.

 **********************************************************************

 Orbital symmetries:
       Occupied  (A) (A) (A) (A) (A) (A) (A) (A) (A) (A) (A) (A)
                 (A) (A) (A) (A) (A) (A) (A) (A) (A) (A) (A) (A)
                 (A) (A)
       Virtual   (A) (A) (A) (A) (A) (A) (A) (A) (A) (A) (A) (A)
                 (A) (A) (A) (A) (A) (A) (A) (A) (A) (A) (A) (A)
                 (A) (A) (A) (A) (A) (A) (A) (A) (A) (A) (A) (A)
                 (A) (A) (A) (A) (A) (A) (A) (A) (A) (A) (A) (A)
                 (A) (A) (A) (A) (A) (A) (A) (A) (A)
 The electronic state is 1-A.
 Alpha  occ. eigenvalues --  -10.12494 -10.12283 -10.12218 -10.12138 -10.12084
 Alpha  occ. eigenvalues --  -10.10790 -10.10549  -0.85693  -0.74900  -0.70736
 Alpha  occ. eigenvalues --   -0.70123  -0.56596  -0.55186  -0.53009  -0.51623
 Alpha  occ. eigenvalues --   -0.46395  -0.43182  -0.41019  -0.40489  -0.37757
 Alpha  occ. eigenvalues --   -0.35936  -0.35800  -0.34327  -0.29873  -0.25958
 Alpha  occ. eigenvalues --   -0.21794
 Alpha virt. eigenvalues --   -0.01191   0.03032   0.08963   0.13233   0.15662
 Alpha virt. eigenvalues --    0.17023   0.17356   0.18962   0.19256   0.19458
 Alpha virt. eigenvalues --    0.19989   0.20790   0.21154   0.25557   0.29728
 Alpha virt. eigenvalues --    0.37726   0.38443   0.40022   0.47185   0.64656
 Alpha virt. eigenvalues --    0.67954   0.71067   0.71744   0.72793   0.73763
 Alpha virt. eigenvalues --    0.74391   0.77947   0.79090   0.81394   0.82379
 Alpha virt. eigenvalues --    0.83456   0.83767   0.85257   0.88796   0.92003
 Alpha virt. eigenvalues --    0.95162   0.99139   1.02003   1.03244   1.04506
 Alpha virt. eigenvalues --    1.04838   1.05951   1.07091   1.11306   1.12384
 Alpha virt. eigenvalues --    1.16163   1.29282   1.36720   1.37338   1.40042
 Alpha virt. eigenvalues --    1.42077   1.55801   1.70950   1.75229   1.84687
 Alpha virt. eigenvalues --    2.03914   2.17612
          Condensed to atoms (all electrons):
               1          2          3          4          5          6
     1  C    5.248162   0.526103  -0.113371  -0.111447   0.390483  -0.036765
     2  C    0.526103   5.189211   0.386973  -0.111198  -0.035406   0.387241
     3  C   -0.113371   0.386973   5.178828   0.525485   0.003889  -0.031574
     4  C   -0.111447  -0.111198   0.525485   5.234692   0.002781   0.003439
     5  H    0.390483  -0.035406   0.003889   0.002781   0.490685  -0.002055
     6  H   -0.036765   0.387241  -0.031574   0.003439  -0.002055   0.496120
     7  H    0.003444  -0.031874   0.387186  -0.036751  -0.000050  -0.000757
     8  H    0.002776   0.003892  -0.035523   0.390180  -0.000031  -0.000050
     9  C    0.331742  -0.125902  -0.123527   0.334409  -0.031813   0.004498
    10  H   -0.034505   0.002349   0.002259  -0.034950  -0.000208  -0.000087
    11  H   -0.033425   0.002188   0.002237  -0.034500  -0.000190  -0.000082
    12  C   -0.003665  -0.003279   0.000090   0.001185  -0.000058  -0.000025
    13  H    0.002745   0.003465   0.000082  -0.000703   0.000102   0.000215
    14  H    0.000092   0.000049   0.000021   0.000033   0.000002  -0.000000
    15  C    0.000290   0.000136  -0.001350  -0.003197   0.000001   0.000001
    16  H   -0.000012  -0.000004   0.000020   0.000124  -0.000000   0.000000
    17  H   -0.000081   0.000018   0.002074   0.005804  -0.000001  -0.000001
               7          8          9         10         11         12
     1  C    0.003444   0.002776   0.331742  -0.034505  -0.033425  -0.003665
     2  C   -0.031874   0.003892  -0.125902   0.002349   0.002188  -0.003279
     3  C    0.387186  -0.035523  -0.123527   0.002259   0.002237   0.000090
     4  C   -0.036751   0.390180   0.334409  -0.034950  -0.034500   0.001185
     5  H   -0.000050  -0.000031  -0.031813  -0.000208  -0.000190  -0.000058
     6  H   -0.000757  -0.000050   0.004498  -0.000087  -0.000082  -0.000025
     7  H    0.496414  -0.002051   0.004502  -0.000087  -0.000083  -0.000009
     8  H   -0.002051   0.491504  -0.031927  -0.000176  -0.000200  -0.000012
     9  C    0.004502  -0.031927   5.420685   0.348835   0.342109  -0.004514
    10  H   -0.000087  -0.000176   0.348835   0.514228  -0.021423   0.000076
    11  H   -0.000083  -0.000200   0.342109  -0.021423   0.491770   0.006845
    12  C   -0.000009  -0.000012  -0.004514   0.000076   0.006845   5.183462
    13  H    0.000014  -0.000014  -0.001959   0.000106  -0.001250   0.370483
    14  H    0.000000   0.000001  -0.000026   0.000000  -0.000023   0.378262
    15  C    0.000005  -0.000138  -0.002383   0.000048   0.004269   0.559185
    16  H    0.000000  -0.000003   0.000008   0.000000   0.000012  -0.047841
    17  H    0.000059   0.000627  -0.000457   0.000014  -0.000178  -0.045468
              13         14         15         16         17
     1  C    0.002745   0.000092   0.000290  -0.000012  -0.000081
     2  C    0.003465   0.000049   0.000136  -0.000004   0.000018
     3  C    0.000082   0.000021  -0.001350   0.000020   0.002074
     4  C   -0.000703   0.000033  -0.003197   0.000124   0.005804
     5  H    0.000102   0.000002   0.000001  -0.000000  -0.000001
     6  H    0.000215  -0.000000   0.000001   0.000000  -0.000001
     7  H    0.000014   0.000000   0.000005   0.000000   0.000059
     8  H   -0.000014   0.000001  -0.000138  -0.000003   0.000627
     9  C   -0.001959  -0.000026  -0.002383   0.000008  -0.000457
    10  H    0.000106   0.000000   0.000048   0.000000   0.000014
    11  H   -0.001250  -0.000023   0.004269   0.000012  -0.000178
    12  C    0.370483   0.378262   0.559185  -0.047841  -0.045468
    13  H    0.475474  -0.028744  -0.044059   0.003080  -0.004962
    14  H   -0.028744   0.525741  -0.048779  -0.005142   0.003373
    15  C   -0.044059  -0.048779   5.168245   0.376834   0.374681
    16  H    0.003080  -0.005142   0.376834   0.526955  -0.030351
    17  H   -0.004962   0.003373   0.374681  -0.030351   0.502113
 Mulliken charges:
               1
     1  C   -0.172566
     2  C   -0.193962
     3  C   -0.183799
     4  C   -0.165387
     5  H    0.181870
     6  H    0.179882
     7  H    0.180036
     8  H    0.181144
     9  C   -0.464280
    10  H    0.223521
    11  H    0.241923
    12  C   -0.394717
    13  H    0.225927
    14  H    0.175141
    15  C   -0.383786
    16  H    0.176319
    17  H    0.192735
 Sum of Mulliken charges =   0.00000
 Mulliken charges with hydrogens summed into heavy atoms:
               1
     1  C    0.009303
     2  C   -0.014080
     3  C   -0.003763
     4  C    0.015757
     9  C    0.001164
    12  C    0.006351
    15  C   -0.014731
 Electronic spatial extent (au):  <R**2>=            874.0104
 Charge=              0.0000 electrons
 Dipole moment (field-independent basis, Debye):
    X=             -0.2210    Y=              0.0125    Z=             -0.4951  Tot=              0.5423
 Quadrupole moment (field-independent basis, Debye-Ang):
   XX=            -46.0148   YY=            -40.3301   ZZ=            -41.8549
   XY=             -0.9922   XZ=             -1.9039   YZ=             -0.1909
 Traceless Quadrupole moment (field-independent basis, Debye-Ang):
   XX=             -3.2815   YY=              2.4031   ZZ=              0.8784
   XY=             -0.9922   XZ=             -1.9039   YZ=             -0.1909
 Octapole moment (field-independent basis, Debye-Ang**2):
  XXX=             11.4718  YYY=              0.1505  ZZZ=             -0.3433  XYY=              0.8257
  XXY=              2.3773  XXZ=             -3.6839  XZZ=             -8.6143  YZZ=             -0.7108
  YYZ=             -0.1723  XYZ=             -0.0587
 Hexadecapole moment (field-independent basis, Debye-Ang**3):
 XXXX=           -726.9877 YYYY=           -245.0826 ZZZZ=           -204.6320 XXXY=             -4.7205
 XXXZ=            -18.5728 YYYX=             -3.8117 YYYZ=             -2.1976 ZZZX=             -6.8375
 ZZZY=             -1.0300 XXYY=           -158.2683 XXZZ=           -157.9083 YYZZ=            -75.4094
 XXYZ=              1.2626 YYXZ=             -2.5064 ZZXY=             -1.0591
 N-N= 2.716857046297D+02 E-N=-1.170502226661D+03  KE= 2.687453018217D+02
 1\1\GINC-TACHAS\FOpt\RB3LYP\3-21G\C7H10\LEOS\20-Oct-2019\0\\# opt=modr
 edundant b3lyp/3-21g geom=connectivity\\Title Card Required\\0,1\C,1.9
 976091195,-1.4788640333,-0.025417486\C,3.3482828609,-1.4576348836,-0.0
 527068809\C,3.8174098912,-0.0570959015,0.0551212253\C,2.7493005041,0.7
 657551255,0.1422908386\H,1.3582283545,-2.3479011011,-0.0867331106\H,4.
 0043245718,-2.3132814135,-0.1342348345\H,4.8581089049,0.2354102735,0.0
 623222405\H,2.7610228787,1.8433360732,0.2216125174\C,1.4731422658,-0.0
 56952237,0.0827034193\H,0.8605372906,0.2115732231,-0.7897677448\H,0.86
 83124919,0.08195598,0.9872714934\C,2.1794657767,-0.7530481851,3.291225
 4457\H,2.6201074533,-1.2465676726,2.4341352607\H,1.5796877758,-1.36753
 38531,3.9577284969\C,2.3569356047,0.5475422398,3.5125181969\H,1.913385
 2346,1.0534136494,4.3660492171\H,2.9613837008,1.1534147162,2.847296895
 1\\Version=ES64L-G16RevB.01\State=1-A\HF=-271.1999275\RMSD=2.497e-09\R
 MSF=9.130e-04\Dipole=-0.1690466,0.0375212,-0.124652\Quadrupole=1.12681
 72,1.8760755,-3.0028927,0.1737998,-0.5602862,0.3255095\PG=C01 [X(C7H10
 )]\\@


 AND THIS OUR LIFE, EXEMPT FROM PUBLIC HAUNT,
 FINDS TONGUES IN TREES, BOOKS IN THE RUNNING BROOKS,
 SERMONS IN STONES, AND GOOD IN EVERYTHING.
 I WOULD NOT CHANGE IT. -- W. SHAKESPEARE
 AS YOU LIKE IT, ACT II, SCENE 1.
 Job cpu time:       0 days  0 hours 22 minutes 47.4 seconds.
 Elapsed time:       0 days  0 hours 11 minutes 28.1 seconds.
 File lengths (MBytes):  RWF=     10 Int=      0 D2E=      0 Chk=      2 Scr=      1
 Normal termination of Gaussian 16 at Sun Oct 20 18:40:53 2019.
