 Entering Gaussian System, Link 0=g16
 Input=/home/leos/Ciclo/C3.5.com
 Output=/home/leos/Ciclo/C3.5.log
 Initial command:
 /opt/g16/l1.exe "/tmp/Gau-32200.inp" -scrdir="/tmp/"
 Entering Link 1 = /opt/g16/l1.exe PID=     32203.
  
 Copyright (c) 1988-2017, Gaussian, Inc.  All Rights Reserved.
  
 This is part of the Gaussian(R) 16 program.  It is based on
 the Gaussian(R) 09 system (copyright 2009, Gaussian, Inc.),
 the Gaussian(R) 03 system (copyright 2003, Gaussian, Inc.),
 the Gaussian(R) 98 system (copyright 1998, Gaussian, Inc.),
 the Gaussian(R) 94 system (copyright 1995, Gaussian, Inc.),
 the Gaussian 92(TM) system (copyright 1992, Gaussian, Inc.),
 the Gaussian 90(TM) system (copyright 1990, Gaussian, Inc.),
 the Gaussian 88(TM) system (copyright 1988, Gaussian, Inc.),
 the Gaussian 86(TM) system (copyright 1986, Carnegie Mellon
 University), and the Gaussian 82(TM) system (copyright 1983,
 Carnegie Mellon University). Gaussian is a federally registered
 trademark of Gaussian, Inc.
  
 This software contains proprietary and confidential information,
 including trade secrets, belonging to Gaussian, Inc.
  
 This software is provided under written license and may be
 used, copied, transmitted, or stored only in accord with that
 written license.
  
 The following legend is applicable only to US Government
 contracts under FAR:
  
                    RESTRICTED RIGHTS LEGEND
  
 Use, reproduction and disclosure by the US Government is
 subject to restrictions as set forth in subparagraphs (a)
 and (c) of the Commercial Computer Software - Restricted
 Rights clause in FAR 52.227-19.
  
 Gaussian, Inc.
 340 Quinnipiac St., Bldg. 40, Wallingford CT 06492
  
  
 ---------------------------------------------------------------
 Warning -- This program may not be used in any manner that
 competes with the business of Gaussian, Inc. or will provide
 assistance to any competitor of Gaussian, Inc.  The licensee
 of this program is prohibited from giving any competitor of
 Gaussian, Inc. access to this program.  By using this program,
 the user acknowledges that Gaussian, Inc. is engaged in the
 business of creating and licensing software in the field of
 computational chemistry and represents and warrants to the
 licensee that it is not a competitor of Gaussian, Inc. and that
 it will not use this program in any manner prohibited above.
 ---------------------------------------------------------------
  

 Cite this work as:
 Gaussian 16, Revision B.01,
 M. J. Frisch, G. W. Trucks, H. B. Schlegel, G. E. Scuseria, 
 M. A. Robb, J. R. Cheeseman, G. Scalmani, V. Barone, 
 G. A. Petersson, H. Nakatsuji, X. Li, M. Caricato, A. V. Marenich, 
 J. Bloino, B. G. Janesko, R. Gomperts, B. Mennucci, H. P. Hratchian, 
 J. V. Ortiz, A. F. Izmaylov, J. L. Sonnenberg, D. Williams-Young, 
 F. Ding, F. Lipparini, F. Egidi, J. Goings, B. Peng, A. Petrone, 
 T. Henderson, D. Ranasinghe, V. G. Zakrzewski, J. Gao, N. Rega, 
 G. Zheng, W. Liang, M. Hada, M. Ehara, K. Toyota, R. Fukuda, 
 J. Hasegawa, M. Ishida, T. Nakajima, Y. Honda, O. Kitao, H. Nakai, 
 T. Vreven, K. Throssell, J. A. Montgomery, Jr., J. E. Peralta, 
 F. Ogliaro, M. J. Bearpark, J. J. Heyd, E. N. Brothers, K. N. Kudin, 
 V. N. Staroverov, T. A. Keith, R. Kobayashi, J. Normand, 
 K. Raghavachari, A. P. Rendell, J. C. Burant, S. S. Iyengar, 
 J. Tomasi, M. Cossi, J. M. Millam, M. Klene, C. Adamo, R. Cammi, 
 J. W. Ochterski, R. L. Martin, K. Morokuma, O. Farkas, 
 J. B. Foresman, and D. J. Fox, Gaussian, Inc., Wallingford CT, 2016.
 
 ******************************************
 Gaussian 16:  ES64L-G16RevB.01 20-Dec-2017
                20-Oct-2019 
 ******************************************
 %nprocshared=2
 Will use up to    2 processors via shared memory.
 %mem=6GB
 %chk=C3.chk
 ------------------------------------------------
 # opt=modredundant b3lyp/3-21g geom=connectivity
 ------------------------------------------------
 1/18=120,19=15,26=3,38=1,57=2/1,3;
 2/9=110,12=2,17=6,18=5,40=1/2;
 3/5=5,11=2,25=1,30=1,71=1,74=-5/1,2,3;
 4//1;
 5/5=2,38=5/2;
 6/7=2,8=2,9=2,10=2,28=1/1;
 7//1,2,3,16;
 1/18=20,19=15,26=3/3(2);
 2/9=110/2;
 99//99;
 2/9=110/2;
 3/5=5,11=2,25=1,30=1,71=1,74=-5/1,2,3;
 4/5=5,16=3,69=1/1;
 5/5=2,38=5/2;
 7//1,2,3,16;
 1/18=20,19=15,26=3/3(-5);
 2/9=110/2;
 6/7=2,8=2,9=2,10=2,19=2,28=1/1;
 99/9=1/99;
 -------------------
 Title Card Required
 -------------------
 Symbolic Z-matrix:
 Charge =  0 Multiplicity = 1
 C                    -1.06446   1.17728  -0.3175 
 C                    -1.45328   0.65963   0.87257 
 C                    -1.33716  -0.82096   0.82525 
 C                    -0.88854  -1.19809  -0.39631 
 H                    -1.08573   2.2294   -0.57536 
 H                    -1.80751   1.22584   1.72253 
 H                    -1.58786  -1.48491   1.63887 
 H                    -0.74611  -2.2176   -0.73738 
 C                    -0.69128   0.0621   -1.25853 
 H                    -1.3752    0.00298  -2.12612 
 H                     0.32143   0.14805  -1.63292 
 C                     2.15022   0.73809   0.99512 
 H                     2.42041   1.36221   0.18818 
 H                     1.99607   1.13157   2.01289 
 C                     2.33339  -0.61852   0.84195 
 H                     2.37716  -1.31498   1.68773 
 H                     2.71199  -0.93668  -0.11044 
 
 Add virtual bond connecting atoms H13        and H11        Dist= 5.73D+00.
 Add virtual bond connecting atoms H17        and H11        Dist= 5.73D+00.
 The following ModRedundant input section has been read:
 B       4      15 F                                                           
 B       1      12 F                                                           
 

 GradGradGradGradGradGradGradGradGradGradGradGradGradGradGradGradGradGrad
 Berny optimization.
 Initialization pass.
                           ----------------------------
                           !    Initial Parameters    !
                           ! (Angstroms and Degrees)  !
 --------------------------                            --------------------------
 ! Name  Definition              Value          Derivative Info.                !
 --------------------------------------------------------------------------------
 ! R1    R(1,2)                  1.3548         estimate D2E/DX2                !
 ! R2    R(1,5)                  1.0835         estimate D2E/DX2                !
 ! R3    R(1,9)                  1.5061         estimate D2E/DX2                !
 ! R4    R(1,12)                 3.5            Frozen                          !
 ! R5    R(2,3)                  1.4859         estimate D2E/DX2                !
 ! R6    R(2,6)                  1.081          estimate D2E/DX2                !
 ! R7    R(3,4)                  1.3549         estimate D2E/DX2                !
 ! R8    R(3,7)                  1.0796         estimate D2E/DX2                !
 ! R9    R(4,8)                  1.0844         estimate D2E/DX2                !
 ! R10   R(4,9)                  1.5396         estimate D2E/DX2                !
 ! R11   R(4,15)                 3.5            Frozen                          !
 ! R12   R(9,10)                 1.1063         estimate D2E/DX2                !
 ! R13   R(9,11)                 1.0831         estimate D2E/DX2                !
 ! R14   R(11,13)                3.0325         estimate D2E/DX2                !
 ! R15   R(11,17)                3.0347         estimate D2E/DX2                !
 ! R16   R(12,13)                1.0553         estimate D2E/DX2                !
 ! R17   R(12,14)                1.102          estimate D2E/DX2                !
 ! R18   R(12,15)                1.3775         estimate D2E/DX2                !
 ! R19   R(15,16)                1.0965         estimate D2E/DX2                !
 ! R20   R(15,17)                1.0731         estimate D2E/DX2                !
 ! A1    A(2,1,5)              125.0618         estimate D2E/DX2                !
 ! A2    A(2,1,9)              109.6967         estimate D2E/DX2                !
 ! A3    A(5,1,9)              125.112          estimate D2E/DX2                !
 ! A4    A(1,2,3)              109.2888         estimate D2E/DX2                !
 ! A5    A(1,2,6)              125.7757         estimate D2E/DX2                !
 ! A6    A(3,2,6)              124.9296         estimate D2E/DX2                !
 ! A7    A(2,3,4)              109.3865         estimate D2E/DX2                !
 ! A8    A(2,3,7)              124.794          estimate D2E/DX2                !
 ! A9    A(4,3,7)              125.8139         estimate D2E/DX2                !
 ! A10   A(3,4,8)              126.0672         estimate D2E/DX2                !
 ! A11   A(3,4,9)              108.6336         estimate D2E/DX2                !
 ! A12   A(8,4,9)              125.2073         estimate D2E/DX2                !
 ! A13   A(1,9,4)              102.9674         estimate D2E/DX2                !
 ! A14   A(1,9,10)             112.1088         estimate D2E/DX2                !
 ! A15   A(1,9,11)             112.8843         estimate D2E/DX2                !
 ! A16   A(4,9,10)             108.4353         estimate D2E/DX2                !
 ! A17   A(4,9,11)             112.2303         estimate D2E/DX2                !
 ! A18   A(10,9,11)            108.1307         estimate D2E/DX2                !
 ! A19   A(9,11,13)            118.1229         estimate D2E/DX2                !
 ! A20   A(9,11,17)            122.3276         estimate D2E/DX2                !
 ! A21   A(13,11,17)            45.2994         estimate D2E/DX2                !
 ! A22   A(13,12,14)           122.0618         estimate D2E/DX2                !
 ! A23   A(13,12,15)           117.606          estimate D2E/DX2                !
 ! A24   A(14,12,15)           118.2256         estimate D2E/DX2                !
 ! A25   A(11,13,12)            92.5897         estimate D2E/DX2                !
 ! A26   A(12,15,16)           123.0304         estimate D2E/DX2                !
 ! A27   A(12,15,17)           115.95           estimate D2E/DX2                !
 ! A28   A(16,15,17)           118.8269         estimate D2E/DX2                !
 ! A29   A(11,17,15)            93.5173         estimate D2E/DX2                !
 ! D1    D(5,1,2,3)            177.4182         estimate D2E/DX2                !
 ! D2    D(5,1,2,6)             -1.7359         estimate D2E/DX2                !
 ! D3    D(9,1,2,3)              1.3869         estimate D2E/DX2                !
 ! D4    D(9,1,2,6)           -177.7672         estimate D2E/DX2                !
 ! D5    D(2,1,9,4)             -1.6695         estimate D2E/DX2                !
 ! D6    D(2,1,9,10)           114.6776         estimate D2E/DX2                !
 ! D7    D(2,1,9,11)          -122.9074         estimate D2E/DX2                !
 ! D8    D(5,1,9,4)           -177.6983         estimate D2E/DX2                !
 ! D9    D(5,1,9,10)           -61.3512         estimate D2E/DX2                !
 ! D10   D(5,1,9,11)            61.0638         estimate D2E/DX2                !
 ! D11   D(1,2,3,4)             -0.4811         estimate D2E/DX2                !
 ! D12   D(1,2,3,7)           -179.656          estimate D2E/DX2                !
 ! D13   D(6,2,3,4)            178.6819         estimate D2E/DX2                !
 ! D14   D(6,2,3,7)             -0.493          estimate D2E/DX2                !
 ! D15   D(2,3,4,8)           -177.262          estimate D2E/DX2                !
 ! D16   D(2,3,4,9)             -0.6139         estimate D2E/DX2                !
 ! D17   D(7,3,4,8)              1.9024         estimate D2E/DX2                !
 ! D18   D(7,3,4,9)            178.5506         estimate D2E/DX2                !
 ! D19   D(3,4,9,1)              1.3595         estimate D2E/DX2                !
 ! D20   D(3,4,9,10)          -117.5787         estimate D2E/DX2                !
 ! D21   D(3,4,9,11)           123.0414         estimate D2E/DX2                !
 ! D22   D(8,4,9,1)            178.0436         estimate D2E/DX2                !
 ! D23   D(8,4,9,10)            59.1053         estimate D2E/DX2                !
 ! D24   D(8,4,9,11)           -60.2745         estimate D2E/DX2                !
 ! D25   D(1,9,11,13)           32.7377         estimate D2E/DX2                !
 ! D26   D(1,9,11,17)           85.464          estimate D2E/DX2                !
 ! D27   D(4,9,11,13)          -83.0882         estimate D2E/DX2                !
 ! D28   D(4,9,11,17)          -30.3619         estimate D2E/DX2                !
 ! D29   D(10,9,11,13)         157.3538         estimate D2E/DX2                !
 ! D30   D(10,9,11,17)        -149.9199         estimate D2E/DX2                !
 ! D31   D(9,11,13,12)          49.5226         estimate D2E/DX2                !
 ! D32   D(17,11,13,12)        -59.3915         estimate D2E/DX2                !
 ! D33   D(9,11,17,15)         -40.0185         estimate D2E/DX2                !
 ! D34   D(13,11,17,15)         59.1027         estimate D2E/DX2                !
 ! D35   D(14,12,13,11)       -132.9422         estimate D2E/DX2                !
 ! D36   D(15,12,13,11)         63.8615         estimate D2E/DX2                !
 ! D37   D(13,12,15,16)        161.0427         estimate D2E/DX2                !
 ! D38   D(13,12,15,17)         -1.8983         estimate D2E/DX2                !
 ! D39   D(14,12,15,16)         -2.8126         estimate D2E/DX2                !
 ! D40   D(14,12,15,17)       -165.7536         estimate D2E/DX2                !
 ! D41   D(12,15,17,11)        -61.529          estimate D2E/DX2                !
 ! D42   D(16,15,17,11)        134.7749         estimate D2E/DX2                !
 --------------------------------------------------------------------------------
 Trust Radius=3.00D-01 FncErr=1.00D-07 GrdErr=1.00D-06 EigMax=2.50D+02 EigMin=1.00D-04
 Number of steps in this run=    101 maximum allowed number of steps=    102.
 GradGradGradGradGradGradGradGradGradGradGradGradGradGradGradGradGradGrad

                          Input orientation:                          
 ---------------------------------------------------------------------
 Center     Atomic      Atomic             Coordinates (Angstroms)
 Number     Number       Type             X           Y           Z
 ---------------------------------------------------------------------
      1          6           0       -1.064456    1.177276   -0.317503
      2          6           0       -1.453276    0.659629    0.872565
      3          6           0       -1.337157   -0.820962    0.825252
      4          6           0       -0.888542   -1.198089   -0.396310
      5          1           0       -1.085727    2.229400   -0.575356
      6          1           0       -1.807505    1.225837    1.722530
      7          1           0       -1.587855   -1.484906    1.638869
      8          1           0       -0.746112   -2.217595   -0.737378
      9          6           0       -0.691280    0.062096   -1.258532
     10          1           0       -1.375202    0.002980   -2.126120
     11          1           0        0.321433    0.148053   -1.632917
     12          6           0        2.150221    0.738087    0.995115
     13          1           0        2.420413    1.362209    0.188181
     14          1           0        1.996068    1.131569    2.012888
     15          6           0        2.333387   -0.618525    0.841946
     16          1           0        2.377164   -1.314979    1.687730
     17          1           0        2.711992   -0.936680   -0.110436
 ---------------------------------------------------------------------
                    Distance matrix (angstroms):
                    1          2          3          4          5
     1  C    0.000000
     2  C    1.354770   0.000000
     3  C    2.318019   1.485891   0.000000
     4  C    2.383173   2.319501   1.354878   0.000000
     5  H    1.083469   2.166968   3.365951   3.437822   0.000000
     6  H    2.171685   1.080976   2.283795   3.348043   2.609288
     7  H    3.344929   2.281307   1.079650   2.171004   4.353274
     8  H    3.435518   3.372005   2.177551   1.084438   4.462886
     9  C    1.506128   2.340781   2.353530   1.539612   2.306409
    10  H    2.178676   3.070732   3.064462   2.161399   2.728665
    11  H    2.170323   3.112674   3.119696   2.192107   2.725902
    12  C    3.500000   3.606434   3.823780   3.862502   3.893809
    13  H    3.526220   3.995931   4.392201   4.224445   3.691615
    14  H    3.847027   3.663473   4.041441   4.421823   4.171534
    15  C    4.014295   3.996678   3.676160   3.500000   4.670092
    16  H    4.698621   4.385868   3.845010   3.875786   5.447549
    17  H    4.332810   4.567707   4.157464   3.621312   4.966174
                    6          7          8          9         10
     6  H    0.000000
     7  H    2.720914   0.000000
     8  H    4.362903   2.625246   0.000000
     9  C    3.389245   3.404702   2.339145   0.000000
    10  H    4.061326   4.053908   2.693569   1.106324   0.000000
    11  H    4.117405   4.125108   2.745530   1.083116   1.772813
    12  C    4.053471   4.396513   4.486238   3.689176   4.765616
    13  H    4.499790   5.126087   4.868114   3.669592   4.648676
    14  H    3.815804   4.453126   5.128393   4.366669   5.456241
    15  C    4.617801   4.094123   3.812428   3.744845   4.790545
    16  H    4.895754   3.968959   4.055948   4.471257   5.510237
    17  H    5.334988   4.674323   3.740626   3.727994   4.653074
                   11         12         13         14         15
    11  H    0.000000
    12  C    3.255635   0.000000
    13  H    3.032539   1.055307   0.000000
    14  H    4.130811   1.102022   1.887543   0.000000
    15  C    3.280328   1.377464   2.087652   2.132538   0.000000
    16  H    4.170514   2.178601   3.068852   2.497311   1.096501
    17  H    3.034694   2.083909   2.336468   3.049378   1.073125
                   16         17
    16  H    0.000000
    17  H    1.867785   0.000000
 Stoichiometry    C7H10
 Framework group  C1[X(C7H10)]
 Deg. of freedom    45
 Full point group                 C1      NOp   1
 Largest Abelian subgroup         C1      NOp   1
 Largest concise Abelian subgroup C1      NOp   1
                         Standard orientation:                         
 ---------------------------------------------------------------------
 Center     Atomic      Atomic             Coordinates (Angstroms)
 Number     Number       Type             X           Y           Z
 ---------------------------------------------------------------------
      1          6           0       -1.127851   -1.135624    0.374877
      2          6           0       -1.166614   -0.777655   -0.931170
      3          6           0       -1.067011    0.701041   -1.037982
      4          6           0       -0.978831    1.236696    0.203385
      5          1           0       -1.221634   -2.149433    0.745418
      6          1           0       -1.268653   -1.453237   -1.768837
      7          1           0       -1.078694    1.253922   -1.965252
      8          1           0       -0.936846    2.293943    0.441020
      9          6           0       -1.032650    0.096208    1.236243
     10          1           0       -1.932485    0.235455    1.864621
     11          1           0       -0.165760    0.090156    1.885555
     12          6           0        2.326419   -0.747669   -0.034405
     13          1           0        2.358726   -1.261175    0.886975
     14          1           0        2.463671   -1.265149   -0.997644
     15          6           0        2.460553    0.622961   -0.006308
     16          1           0        2.740571    1.214261   -0.886234
     17          1           0        2.557011    1.065505    0.966547
 ---------------------------------------------------------------------
 Rotational constants (GHZ):           3.6019251           1.6615993           1.5796447
 Standard basis: 3-21G (6D, 7F)
 There are    83 symmetry adapted cartesian basis functions of A   symmetry.
 There are    83 symmetry adapted basis functions of A   symmetry.
    83 basis functions,   135 primitive gaussians,    83 cartesian basis functions
    26 alpha electrons       26 beta electrons
       nuclear repulsion energy       267.2874863420 Hartrees.
 NAtoms=   17 NActive=   17 NUniq=   17 SFac= 1.00D+00 NAtFMM=   60 NAOKFM=F Big=F
 Integral buffers will be    131072 words long.
 Raffenetti 2 integral format.
 Two-electron integral symmetry is turned on.
 One-electron integrals computed using PRISM.
 NBasis=    83 RedAO= T EigKep=  4.76D-03  NBF=    83
 NBsUse=    83 1.00D-06 EigRej= -1.00D+00 NBFU=    83
 ExpMin= 1.83D-01 ExpMax= 1.72D+02 ExpMxC= 1.72D+02 IAcc=3 IRadAn=         5 AccDes= 0.00D+00
 Harris functional with IExCor=  402 and IRadAn=       5 diagonalized for initial guess.
 HarFok:  IExCor=  402 AccDes= 0.00D+00 IRadAn=         5 IDoV= 1 UseB2=F ITyADJ=14
 ICtDFT=  3500011 ScaDFX=  1.000000  1.000000  1.000000  1.000000
 FoFCou: FMM=F IPFlag=           0 FMFlag=      100000 FMFlg1=           0
         NFxFlg=           0 DoJE=T BraDBF=F KetDBF=T FulRan=T
         wScrn=  0.000000 ICntrl=       500 IOpCl=  0 I1Cent=   200000004 NGrid=           0
         NMat0=    1 NMatS0=      1 NMatT0=    0 NMatD0=    1 NMtDS0=    0 NMtDT0=    0
 Petite list used in FoFCou.
 Keep R1 ints in memory in canonical form, NReq=7891700.
 Requested convergence on RMS density matrix=1.00D-08 within 128 cycles.
 Requested convergence on MAX density matrix=1.00D-06.
 Requested convergence on             energy=1.00D-06.
 No special actions if energy rises.
 Integral accuracy reduced to 1.0D-05 until final iterations.
 Initial convergence to 1.0D-05 achieved.  Increase integral accuracy.
 SCF Done:  E(RB3LYP) =  -271.187713679     A.U. after   13 cycles
            NFock= 13  Conv=0.87D-08     -V/T= 2.0098

 **********************************************************************

            Population analysis using the SCF Density.

 **********************************************************************

 Orbital symmetries:
       Occupied  (A) (A) (A) (A) (A) (A) (A) (A) (A) (A) (A) (A)
                 (A) (A) (A) (A) (A) (A) (A) (A) (A) (A) (A) (A)
                 (A) (A)
       Virtual   (A) (A) (A) (A) (A) (A) (A) (A) (A) (A) (A) (A)
                 (A) (A) (A) (A) (A) (A) (A) (A) (A) (A) (A) (A)
                 (A) (A) (A) (A) (A) (A) (A) (A) (A) (A) (A) (A)
                 (A) (A) (A) (A) (A) (A) (A) (A) (A) (A) (A) (A)
                 (A) (A) (A) (A) (A) (A) (A) (A) (A)
 The electronic state is 1-A.
 Alpha  occ. eigenvalues --  -10.12287 -10.11642 -10.11612 -10.11506 -10.11485
 Alpha  occ. eigenvalues --  -10.11411 -10.11366  -0.84687  -0.74382  -0.69987
 Alpha  occ. eigenvalues --   -0.69457  -0.56802  -0.54580  -0.52255  -0.50907
 Alpha  occ. eigenvalues --   -0.46526  -0.43067  -0.39947  -0.39680  -0.36994
 Alpha  occ. eigenvalues --   -0.35707  -0.35349  -0.35051  -0.29306  -0.24842
 Alpha  occ. eigenvalues --   -0.21061
 Alpha virt. eigenvalues --   -0.00403   0.01909   0.09602   0.12691   0.14409
 Alpha virt. eigenvalues --    0.16356   0.17921   0.18747   0.19234   0.19497
 Alpha virt. eigenvalues --    0.19946   0.21328   0.21655   0.26064   0.27939
 Alpha virt. eigenvalues --    0.35014   0.38897   0.40288   0.47383   0.65459
 Alpha virt. eigenvalues --    0.67640   0.70630   0.71413   0.72308   0.73536
 Alpha virt. eigenvalues --    0.74936   0.76021   0.79541   0.81350   0.81855
 Alpha virt. eigenvalues --    0.83111   0.84986   0.85419   0.89836   0.90931
 Alpha virt. eigenvalues --    0.95484   0.99464   1.01742   1.02269   1.02695
 Alpha virt. eigenvalues --    1.04927   1.06303   1.06670   1.07681   1.09363
 Alpha virt. eigenvalues --    1.11576   1.27407   1.36306   1.36694   1.39065
 Alpha virt. eigenvalues --    1.41024   1.45374   1.62423   1.77908   1.83646
 Alpha virt. eigenvalues --    2.03600   2.16064
          Condensed to atoms (all electrons):
               1          2          3          4          5          6
     1  C    5.225114   0.530286  -0.107720  -0.108450   0.389817  -0.038102
     2  C    0.530286   5.159892   0.392368  -0.108374  -0.036729   0.386624
     3  C   -0.107720   0.392368   5.157302   0.529198   0.003855  -0.030905
     4  C   -0.108450  -0.108374   0.529198   5.223316   0.002718   0.003387
     5  H    0.389817  -0.036729   0.003855   0.002718   0.497421  -0.002161
     6  H   -0.038102   0.386624  -0.030905   0.003387  -0.002161   0.502709
     7  H    0.003363  -0.031341   0.386834  -0.038060  -0.000050  -0.000724
     8  H    0.002531   0.003872  -0.036571   0.389152  -0.000028  -0.000051
     9  C    0.335427  -0.124255  -0.120173   0.334543  -0.031709   0.004580
    10  H   -0.035380   0.001825   0.002077  -0.036364  -0.000139  -0.000094
    11  H   -0.035585   0.002532   0.002386  -0.032861  -0.000266  -0.000083
    12  C    0.002968   0.001290  -0.000926  -0.001054  -0.000058   0.000009
    13  H    0.000261  -0.000004  -0.000001  -0.000020   0.000015  -0.000000
    14  H    0.000022   0.000146  -0.000012   0.000003  -0.000001   0.000016
    15  C   -0.000707  -0.000637   0.000942   0.002915  -0.000005  -0.000003
    16  H    0.000001  -0.000013   0.000045   0.000020  -0.000000  -0.000000
    17  H   -0.000024  -0.000001   0.000001   0.000200  -0.000000  -0.000000
               7          8          9         10         11         12
     1  C    0.003363   0.002531   0.335427  -0.035380  -0.035585   0.002968
     2  C   -0.031341   0.003872  -0.124255   0.001825   0.002532   0.001290
     3  C    0.386834  -0.036571  -0.120173   0.002077   0.002386  -0.000926
     4  C   -0.038060   0.389152   0.334543  -0.036364  -0.032861  -0.001054
     5  H   -0.000050  -0.000028  -0.031709  -0.000139  -0.000266  -0.000058
     6  H   -0.000724  -0.000051   0.004580  -0.000094  -0.000083   0.000009
     7  H    0.503303  -0.002097   0.004516  -0.000097  -0.000077  -0.000003
     8  H   -0.002097   0.496924  -0.030151   0.000024  -0.000174  -0.000008
     9  C    0.004516  -0.030151   5.393176   0.345774   0.350232  -0.000755
    10  H   -0.000097   0.000024   0.345774   0.526691  -0.024606   0.000036
    11  H   -0.000077  -0.000174   0.350232  -0.024606   0.509537   0.001647
    12  C   -0.000003  -0.000008  -0.000755   0.000036   0.001647   5.156351
    13  H   -0.000000   0.000000   0.000036   0.000000   0.000369   0.384647
    14  H   -0.000000   0.000000   0.000004  -0.000000   0.000004   0.378927
    15  C    0.000015  -0.000044  -0.000637   0.000027   0.001701   0.539079
    16  H    0.000009   0.000000   0.000006  -0.000000   0.000005  -0.040044
    17  H    0.000000   0.000011   0.000031  -0.000001   0.000430  -0.053864
              13         14         15         16         17
     1  C    0.000261   0.000022  -0.000707   0.000001  -0.000024
     2  C   -0.000004   0.000146  -0.000637  -0.000013  -0.000001
     3  C   -0.000001  -0.000012   0.000942   0.000045   0.000001
     4  C   -0.000020   0.000003   0.002915   0.000020   0.000200
     5  H    0.000015  -0.000001  -0.000005  -0.000000  -0.000000
     6  H   -0.000000   0.000016  -0.000003  -0.000000  -0.000000
     7  H   -0.000000  -0.000000   0.000015   0.000009   0.000000
     8  H    0.000000   0.000000  -0.000044   0.000000   0.000011
     9  C    0.000036   0.000004  -0.000637   0.000006   0.000031
    10  H    0.000000  -0.000000   0.000027  -0.000000  -0.000001
    11  H    0.000369   0.000004   0.001701   0.000005   0.000430
    12  C    0.384647   0.378927   0.539079  -0.040044  -0.053864
    13  H    0.507504  -0.026808  -0.051480   0.003130  -0.005361
    14  H   -0.026808   0.514978  -0.046825  -0.004325   0.003594
    15  C   -0.051480  -0.046825   5.164070   0.379630   0.379364
    16  H    0.003130  -0.004325   0.379630   0.510671  -0.030075
    17  H   -0.005361   0.003594   0.379364  -0.030075   0.526228
 Mulliken charges:
               1
     1  C   -0.163822
     2  C   -0.177482
     3  C   -0.178701
     4  C   -0.160268
     5  H    0.177319
     6  H    0.174797
     7  H    0.174409
     8  H    0.176610
     9  C   -0.460648
    10  H    0.220225
    11  H    0.224810
    12  C   -0.368243
    13  H    0.187714
    14  H    0.180279
    15  C   -0.367406
    16  H    0.180941
    17  H    0.179467
 Sum of Mulliken charges =  -0.00000
 Mulliken charges with hydrogens summed into heavy atoms:
               1
     1  C    0.013497
     2  C   -0.002686
     3  C   -0.004292
     4  C    0.016342
     9  C   -0.015612
    12  C   -0.000251
    15  C   -0.006999
 Electronic spatial extent (au):  <R**2>=            904.4939
 Charge=              0.0000 electrons
 Dipole moment (field-independent basis, Debye):
    X=              0.1958    Y=              0.0106    Z=              0.4509  Tot=              0.4917
 Quadrupole moment (field-independent basis, Debye-Ang):
   XX=            -46.4622   YY=            -40.4714   ZZ=            -39.1523
   XY=              0.4468   XZ=             -0.4309   YZ=              0.0375
 Traceless Quadrupole moment (field-independent basis, Debye-Ang):
   XX=             -4.4336   YY=              1.5572   ZZ=              2.8763
   XY=              0.4468   XZ=             -0.4309   YZ=              0.0375
 Octapole moment (field-independent basis, Debye-Ang**2):
  XXX=              2.1944  YYY=              0.0847  ZZZ=             -1.8009  XYY=              0.2253
  XXY=              0.7236  XXZ=              1.6102  XZZ=              0.0819  YZZ=             -0.2003
  YYZ=             -0.2516  XYZ=             -0.7167
 Hexadecapole moment (field-independent basis, Debye-Ang**3):
 XXXX=           -803.4951 YYYY=           -255.8332 ZZZZ=           -218.2813 XXXY=              6.4501
 XXXZ=            -12.0761 YYYX=              2.1667 YYYZ=             -0.6136 ZZZX=              3.2229
 ZZZY=             -0.0417 XXYY=           -162.5822 XXZZ=           -147.2247 YYZZ=            -76.4757
 XXYZ=              0.2072 YYXZ=             -0.6149 ZZXY=              0.0554
 N-N= 2.672874863420D+02 E-N=-1.161749508334D+03  KE= 2.685690871625D+02
 Calling FoFJK, ICntrl=      2127 FMM=F ISym2X=0 I1Cent= 0 IOpClX= 0 NMat=1 NMatS=1 NMatT=0.
 ***** Axes restored to original set *****
 -------------------------------------------------------------------
 Center     Atomic                   Forces (Hartrees/Bohr)
 Number     Number              X              Y              Z
 -------------------------------------------------------------------
      1        6          -0.007493448    0.003799629    0.008018797
      2        6           0.002188071   -0.003791351   -0.003881172
      3        6           0.000229796    0.002920622   -0.005625703
      4        6          -0.002508218    0.006443146    0.003993994
      5        1           0.002448928   -0.002294935   -0.001888456
      6        1           0.000506856   -0.001001631    0.000921455
      7        1          -0.000449706    0.000355003    0.001517811
      8        1           0.001837224    0.003826498   -0.001153326
      9        6          -0.009857252   -0.014468329   -0.001625680
     10        1           0.002417187    0.003329524    0.002257096
     11        1           0.008703998    0.000381780   -0.002346962
     12        6           0.014488141   -0.063880583    0.030458216
     13        1          -0.004454693    0.019678290   -0.014019791
     14        1          -0.004664628    0.003197056   -0.014727211
     15        6           0.007998309    0.049846838    0.014121339
     16        1          -0.009146943    0.003863504   -0.008232862
     17        1          -0.002243621   -0.012205061   -0.007787544
 -------------------------------------------------------------------
 Cartesian Forces:  Max     0.063880583 RMS     0.013949877

 GradGradGradGradGradGradGradGradGradGradGradGradGradGradGradGradGradGrad
 Berny optimization.
 FormGI is forming the generalized inverse of G from B-inverse, IUseBI=4.
 Internal  Forces:  Max     0.039358831 RMS     0.005941417
 Search for a local minimum.
 Step number   1 out of a maximum of  101
 All quantities printed in internal units (Hartrees-Bohrs-Radians)
 Mixed Optimization -- RFO/linear search
 Second derivative matrix not updated -- first step.
 ITU=  0
     Eigenvalues ---    0.00702   0.00799   0.01105   0.01303   0.01423
     Eigenvalues ---    0.01700   0.01712   0.01750   0.01994   0.02136
     Eigenvalues ---    0.02308   0.02693   0.03857   0.04435   0.05266
     Eigenvalues ---    0.06421   0.07080   0.11947   0.13608   0.15397
     Eigenvalues ---    0.15648   0.15933   0.15951   0.15997   0.15998
     Eigenvalues ---    0.19305   0.21997   0.27527   0.30277   0.32992
     Eigenvalues ---    0.33003   0.33459   0.33601   0.33968   0.34072
     Eigenvalues ---    0.35463   0.35578   0.35877   0.36037   0.36943
     Eigenvalues ---    0.46280   0.49361   0.533381000.000001000.00000
     Eigenvalues --- 1000.000001000.000001000.000001000.000001000.00000
     Eigenvalues --- 1000.000001000.000001000.000001000.000001000.00000
     Eigenvalues --- 1000.000001000.000001000.000001000.000001000.00000
     Eigenvalues --- 1000.000001000.000001000.000001000.000001000.00000
     Eigenvalues --- 1000.000001000.000001000.000001000.000001000.00000
     Eigenvalues --- 1000.000001000.000001000.000001000.000001000.00000
     Eigenvalues --- 1000.000001000.000001000.000001000.000001000.00000
     Eigenvalues --- 1000.000001000.000001000.000001000.000001000.00000
     Eigenvalues --- 1000.000001000.000001000.000001000.000001000.00000
     Eigenvalues --- 1000.00000
 RFO step:  Lambda=-1.62161776D-02 EMin= 7.02143363D-03
 Linear search not attempted -- first point.
 Iteration  1 RMS(Cart)=  0.05336142 RMS(Int)=  0.00829979
 Iteration  2 RMS(Cart)=  0.00787876 RMS(Int)=  0.00296311
 Iteration  3 RMS(Cart)=  0.00014044 RMS(Int)=  0.00295954
 Iteration  4 RMS(Cart)=  0.00000064 RMS(Int)=  0.00295954
 Iteration  1 RMS(Cart)=  0.00016460 RMS(Int)=  0.00002609
 Iteration  2 RMS(Cart)=  0.00001257 RMS(Int)=  0.00002709
 Iteration  3 RMS(Cart)=  0.00000179 RMS(Int)=  0.00002735
 Iteration  4 RMS(Cart)=  0.00000036 RMS(Int)=  0.00002740
 Variable       Old X    -DE/DX   Delta X   Delta X   Delta X     New X
                                 (Linear)    (Quad)   (Total)
    R1        2.56014  -0.00340   0.00000  -0.00606  -0.00605   2.55409
    R2        2.04746  -0.00183   0.00000  -0.00491  -0.00491   2.04255
    R3        2.84617   0.00377   0.00000   0.01292   0.01285   2.85902
    R4        6.61404   0.00233   0.00000   0.00000  -0.00000   6.61404
    R5        2.80793  -0.00511   0.00000  -0.01567  -0.01563   2.79229
    R6        2.04275   0.00003   0.00000   0.00009   0.00009   2.04284
    R7        2.56035  -0.00424   0.00000  -0.00822  -0.00820   2.55214
    R8        2.04024   0.00103   0.00000   0.00273   0.00273   2.04298
    R9        2.04929  -0.00299   0.00000  -0.00807  -0.00807   2.04122
   R10        2.90945  -0.00758   0.00000  -0.02444  -0.02453   2.88492
   R11        6.61404   0.00068   0.00000   0.00000   0.00000   6.61404
   R12        2.09065  -0.00344   0.00000  -0.00995  -0.00995   2.08070
   R13        2.04679   0.00874   0.00000   0.02337   0.02236   2.06915
   R14        5.73067  -0.00114   0.00000  -0.00407  -0.00658   5.72409
   R15        5.73474  -0.00122   0.00000  -0.02431  -0.02400   5.71074
   R16        1.99424   0.02091   0.00000   0.04991   0.05045   2.04470
   R17        2.08252  -0.01181   0.00000  -0.03365  -0.03365   2.04887
   R18        2.60303  -0.03936   0.00000  -0.08123  -0.07988   2.52315
   R19        2.07209  -0.00917   0.00000  -0.02569  -0.02569   2.04640
   R20        2.02791   0.01037   0.00000   0.02341   0.02410   2.05202
    A1        2.18274   0.00349   0.00000   0.01859   0.01854   2.20128
    A2        1.91457  -0.00076   0.00000  -0.00025  -0.00040   1.91417
    A3        2.18362  -0.00267   0.00000  -0.01665  -0.01676   2.16686
    A4        1.90745   0.00000   0.00000  -0.00093  -0.00093   1.90652
    A5        2.19520   0.00128   0.00000   0.00783   0.00781   2.20301
    A6        2.18043  -0.00128   0.00000  -0.00676  -0.00678   2.17365
    A7        1.90915   0.00038   0.00000  -0.00084  -0.00092   1.90823
    A8        2.17807  -0.00145   0.00000  -0.00663  -0.00674   2.17133
    A9        2.19587   0.00109   0.00000   0.00781   0.00771   2.20357
   A10        2.20029   0.00170   0.00000   0.01157   0.01159   2.21187
   A11        1.89601   0.00244   0.00000   0.01060   0.01054   1.90655
   A12        2.18528  -0.00412   0.00000  -0.02167  -0.02167   2.16361
   A13        1.79712  -0.00206   0.00000  -0.00873  -0.00866   1.78846
   A14        1.95667   0.00013   0.00000  -0.00716  -0.00708   1.94959
   A15        1.97020  -0.00008   0.00000  -0.00278  -0.00298   1.96722
   A16        1.89255   0.00184   0.00000   0.02450   0.02471   1.91726
   A17        1.95879   0.00108   0.00000  -0.00194  -0.00257   1.95622
   A18        1.88724  -0.00079   0.00000  -0.00277  -0.00248   1.88475
   A19        2.06163  -0.00167   0.00000  -0.00597  -0.00500   2.05663
   A20        2.13502  -0.00224   0.00000  -0.01171  -0.01153   2.12349
   A21        0.79062  -0.00053   0.00000   0.03373   0.03207   0.82269
   A22        2.13038  -0.00833   0.00000  -0.03882  -0.05124   2.07914
   A23        2.05261   0.00311   0.00000   0.04624   0.04245   2.09506
   A24        2.06343   0.00723   0.00000   0.05680   0.04478   2.10820
   A25        1.61599  -0.00253   0.00000  -0.00452  -0.00413   1.61186
   A26        2.14729  -0.00342   0.00000  -0.00239  -0.01456   2.13272
   A27        2.02371   0.00885   0.00000   0.07387   0.07034   2.09405
   A28        2.07392  -0.00330   0.00000  -0.00645  -0.01854   2.05538
   A29        1.63219  -0.00265   0.00000  -0.01310  -0.01247   1.61972
    D1        3.09653   0.00038   0.00000   0.01753   0.01813   3.11467
    D2       -0.03030   0.00015   0.00000   0.00768   0.00797  -0.02233
    D3        0.02421  -0.00027   0.00000  -0.00754  -0.00733   0.01687
    D4       -3.10262  -0.00050   0.00000  -0.01740  -0.01750  -3.12012
    D5       -0.02914  -0.00007   0.00000  -0.00367  -0.00395  -0.03308
    D6        2.00150   0.00098   0.00000   0.01683   0.01684   2.01835
    D7       -2.14514  -0.00002   0.00000   0.00567   0.00609  -2.13905
    D8       -3.10142  -0.00102   0.00000  -0.03048  -0.03051  -3.13193
    D9       -1.07078   0.00003   0.00000  -0.00998  -0.00972  -1.08050
   D10        1.06576  -0.00097   0.00000  -0.02115  -0.02047   1.04529
   D11       -0.00840   0.00055   0.00000   0.01757   0.01747   0.00908
   D12       -3.13559  -0.00020   0.00000  -0.00695  -0.00706   3.14054
   D13        3.11859   0.00080   0.00000   0.02747   0.02758  -3.13702
   D14       -0.00860   0.00005   0.00000   0.00295   0.00304  -0.00556
   D15       -3.09381  -0.00079   0.00000  -0.02799  -0.02827  -3.12208
   D16       -0.01071  -0.00065   0.00000  -0.01971  -0.01998  -0.03070
   D17        0.03320  -0.00006   0.00000  -0.00331  -0.00332   0.02988
   D18        3.11630   0.00008   0.00000   0.00497   0.00497   3.12126
   D19        0.02373   0.00044   0.00000   0.01464   0.01492   0.03865
   D20       -2.05214   0.00051   0.00000   0.01631   0.01648  -2.03566
   D21        2.14748  -0.00037   0.00000   0.00485   0.00472   2.15220
   D22        3.10745   0.00082   0.00000   0.02420   0.02428   3.13172
   D23        1.03158   0.00089   0.00000   0.02587   0.02583   1.05741
   D24       -1.05199   0.00001   0.00000   0.01442   0.01408  -1.03791
   D25        0.57138  -0.00041   0.00000  -0.03574  -0.03495   0.53643
   D26        1.49163  -0.00211   0.00000   0.00014  -0.00084   1.49079
   D27       -1.45016   0.00154   0.00000  -0.02153  -0.02037  -1.47054
   D28       -0.52992  -0.00017   0.00000   0.01435   0.01374  -0.51617
   D29        2.74634  -0.00088   0.00000  -0.04891  -0.04786   2.69848
   D30       -2.61660  -0.00258   0.00000  -0.01303  -0.01375  -2.63034
   D31        0.86433   0.00385   0.00000   0.06406   0.06025   0.92458
   D32       -1.03658   0.00572   0.00000   0.06798   0.06475  -0.97183
   D33       -0.69845  -0.00418   0.00000  -0.08609  -0.08253  -0.78098
   D34        1.03154  -0.00490   0.00000  -0.06816  -0.06476   0.96678
   D35       -2.32028   0.00886   0.00000   0.21160   0.20367  -2.11661
   D36        1.11459  -0.00025   0.00000  -0.04841  -0.04764   1.06696
   D37        2.81073   0.00801   0.00000   0.26440   0.26674   3.07746
   D38       -0.03313   0.00035   0.00000   0.01812   0.01896  -0.01417
   D39       -0.04909   0.00191   0.00000   0.03102   0.02764  -0.02145
   D40       -2.89295  -0.00574   0.00000  -0.21526  -0.22013  -3.11308
   D41       -1.07388  -0.00001   0.00000   0.01952   0.01935  -1.05453
   D42        2.35227  -0.00719   0.00000  -0.21582  -0.21743   2.13484
         Item               Value     Threshold  Converged?
 Maximum Force            0.039290     0.000450     NO 
 RMS     Force            0.006002     0.000300     NO 
 Maximum Displacement     0.375105     0.001800     NO 
 RMS     Displacement     0.059593     0.001200     NO 
 Predicted change in Energy=-1.032500D-02
 GradGradGradGradGradGradGradGradGradGradGradGradGradGradGradGradGradGrad

                          Input orientation:                          
 ---------------------------------------------------------------------
 Center     Atomic      Atomic             Coordinates (Angstroms)
 Number     Number       Type             X           Y           Z
 ---------------------------------------------------------------------
      1          6           0       -1.041273    1.166630   -0.292734
      2          6           0       -1.420294    0.643318    0.894372
      3          6           0       -1.322020   -0.829651    0.830662
      4          6           0       -0.873289   -1.195472   -0.389487
      5          1           0       -1.031669    2.215732   -0.552680
      6          1           0       -1.749991    1.198699    1.761242
      7          1           0       -1.566116   -1.494114    1.647777
      8          1           0       -0.714454   -2.203396   -0.743919
      9          6           0       -0.681432    0.051221   -1.249462
     10          1           0       -1.364419    0.018857   -2.112490
     11          1           0        0.341566    0.134846   -1.630769
     12          6           0        2.187891    0.733767    0.985988
     13          1           0        2.422474    1.402715    0.168542
     14          1           0        1.862162    1.150794    1.932300
     15          6           0        2.346747   -0.583671    0.838141
     16          1           0        2.178666   -1.279859    1.650397
     17          1           0        2.699015   -0.985018   -0.107356
 ---------------------------------------------------------------------
                    Distance matrix (angstroms):
                    1          2          3          4          5
     1  C    0.000000
     2  C    1.351567   0.000000
     3  C    2.307808   1.477618   0.000000
     4  C    2.370043   2.308388   1.350537   0.000000
     5  H    1.080870   2.171975   3.357425   3.418776   0.000000
     6  H    2.173045   1.081023   2.272299   3.335610   2.627657
     7  H    3.334757   2.271013   1.081097   2.172474   4.346333
     8  H    3.415766   3.359462   2.176147   1.080167   4.434624
     9  C    1.512928   2.343612   2.348022   1.526633   2.300712
    10  H    2.175619   3.071529   3.063316   2.164380   2.714773
    11  H    2.183383   3.120742   3.123527   2.187784   2.716272
    12  C    3.500000   3.610482   3.845502   3.871010   3.863843
    13  H    3.502292   3.983764   4.409433   4.233677   3.621085
    14  H    3.658000   3.479849   3.908297   4.286998   3.960237
    15  C    3.977576   3.962229   3.677012   3.500000   4.602688
    16  H    4.486544   4.150024   3.623459   3.671877   5.232491
    17  H    4.318993   4.541326   4.131917   3.589602   4.935698
                    6          7          8          9         10
     6  H    0.000000
     7  H    2.701467   0.000000
     8  H    4.349990   2.636023   0.000000
     9  C    3.394533   3.400694   2.310836   0.000000
    10  H    4.067737   4.058247   2.689581   1.101061   0.000000
    11  H    4.124577   4.128151   2.714601   1.094949   1.776483
    12  C    4.040310   4.415201   4.476953   3.700827   4.767659
    13  H    4.470769   5.146709   4.865895   3.670354   4.632357
    14  H    3.616519   4.339307   5.005166   4.219306   5.296455
    15  C    4.562041   4.098160   3.807541   3.732431   4.779332
    16  H    4.646492   3.750908   3.867274   4.284988   5.329112
    17  H    5.296596   4.640152   3.679868   3.715591   4.641101
                   11         12         13         14         15
    11  H    0.000000
    12  C    3.258073   0.000000
    13  H    3.029058   1.082006   0.000000
    14  H    4.004976   1.084213   1.867687   0.000000
    15  C    3.260757   1.335192   2.097577   2.107220   0.000000
    16  H    4.017759   2.120429   3.074336   2.467331   1.082908
    17  H    3.021995   2.100207   2.419476   3.069562   1.085880
                   16         17
    16  H    0.000000
    17  H    1.856714   0.000000
 Stoichiometry    C7H10
 Framework group  C1[X(C7H10)]
 Deg. of freedom    45
 Full point group                 C1      NOp   1
 Largest Abelian subgroup         C1      NOp   1
 Largest concise Abelian subgroup C1      NOp   1
                         Standard orientation:                         
 ---------------------------------------------------------------------
 Center     Atomic      Atomic             Coordinates (Angstroms)
 Number     Number       Type             X           Y           Z
 ---------------------------------------------------------------------
      1          6           0       -1.094028   -1.141546    0.376154
      2          6           0       -1.142604   -0.786064   -0.926922
      3          6           0       -1.086450    0.686732   -1.032150
      4          6           0       -0.992508    1.220131    0.205028
      5          1           0       -1.140658   -2.149406    0.763868
      6          1           0       -1.215605   -1.458476   -1.770215
      7          1           0       -1.108072    1.233862   -1.964326
      8          1           0       -0.950685    2.270317    0.454270
      9          6           0       -1.024512    0.098470    1.240143
     10          1           0       -1.917240    0.202085    1.876253
     11          1           0       -0.143073    0.112386    1.889594
     12          6           0        2.354874   -0.709279   -0.033988
     13          1           0        2.367318   -1.261282    0.896536
     14          1           0        2.305366   -1.254021   -0.970110
     15          6           0        2.448600    0.622568   -0.022337
     16          1           0        2.498330    1.205482   -0.933615
     17          1           0        2.524085    1.152973    0.922178
 ---------------------------------------------------------------------
 Rotational constants (GHZ):           3.6308211           1.6755244           1.5975491
 Standard basis: 3-21G (6D, 7F)
 There are    83 symmetry adapted cartesian basis functions of A   symmetry.
 There are    83 symmetry adapted basis functions of A   symmetry.
    83 basis functions,   135 primitive gaussians,    83 cartesian basis functions
    26 alpha electrons       26 beta electrons
       nuclear repulsion energy       268.6358996055 Hartrees.
 NAtoms=   17 NActive=   17 NUniq=   17 SFac= 1.00D+00 NAtFMM=   60 NAOKFM=F Big=F
 Integral buffers will be    131072 words long.
 Raffenetti 2 integral format.
 Two-electron integral symmetry is turned on.
 One-electron integrals computed using PRISM.
 NBasis=    83 RedAO= T EigKep=  4.57D-03  NBF=    83
 NBsUse=    83 1.00D-06 EigRej= -1.00D+00 NBFU=    83
 Initial guess from the checkpoint file:  "C3.chk"
 B after Tr=     0.000000   -0.000000    0.000000
         Rot=    0.999973    0.002351   -0.003077   -0.006178 Ang=   0.84 deg.
 ExpMin= 1.83D-01 ExpMax= 1.72D+02 ExpMxC= 1.72D+02 IAcc=3 IRadAn=         5 AccDes= 0.00D+00
 Harris functional with IExCor=  402 and IRadAn=       5 diagonalized for initial guess.
 HarFok:  IExCor=  402 AccDes= 0.00D+00 IRadAn=         5 IDoV= 1 UseB2=F ITyADJ=14
 ICtDFT=  3500011 ScaDFX=  1.000000  1.000000  1.000000  1.000000
 FoFCou: FMM=F IPFlag=           0 FMFlag=      100000 FMFlg1=           0
         NFxFlg=           0 DoJE=T BraDBF=F KetDBF=T FulRan=T
         wScrn=  0.000000 ICntrl=       500 IOpCl=  0 I1Cent=   200000004 NGrid=           0
         NMat0=    1 NMatS0=      1 NMatT0=    0 NMatD0=    1 NMtDS0=    0 NMtDT0=    0
 Petite list used in FoFCou.
 Keep R1 ints in memory in canonical form, NReq=7891700.
 Requested convergence on RMS density matrix=1.00D-08 within 128 cycles.
 Requested convergence on MAX density matrix=1.00D-06.
 Requested convergence on             energy=1.00D-06.
 No special actions if energy rises.
 Integral accuracy reduced to 1.0D-05 until final iterations.
 Initial convergence to 1.0D-05 achieved.  Increase integral accuracy.
 SCF Done:  E(RB3LYP) =  -271.197470778     A.U. after   12 cycles
            NFock= 12  Conv=0.52D-08     -V/T= 2.0093
 Calling FoFJK, ICntrl=      2127 FMM=F ISym2X=0 I1Cent= 0 IOpClX= 0 NMat=1 NMatS=1 NMatT=0.
 ***** Axes restored to original set *****
 -------------------------------------------------------------------
 Center     Atomic                   Forces (Hartrees/Bohr)
 Number     Number              X              Y              Z
 -------------------------------------------------------------------
      1        6          -0.003603811    0.004191353    0.002281254
      2        6           0.000120731   -0.000083478   -0.001526678
      3        6           0.001190387   -0.000598877   -0.000056913
      4        6          -0.002566539    0.000642200   -0.000526653
      5        1           0.001120247   -0.000312354   -0.000953464
      6        1           0.000038125   -0.000311843    0.000226330
      7        1          -0.000155451    0.000245743    0.000171560
      8        1           0.000879516    0.000171490   -0.000693975
      9        6          -0.001016565   -0.006253271    0.000421234
     10        1           0.000475108    0.001565046    0.000274551
     11        1           0.001527567    0.000404993    0.000537894
     12        6           0.004135981   -0.011856750    0.002237572
     13        1          -0.002392661    0.004883851    0.000569136
     14        1          -0.000709290    0.003631373   -0.001878111
     15        6           0.003685656    0.008929064   -0.001416980
     16        1          -0.002113104   -0.001703878   -0.000757382
     17        1          -0.000615897   -0.003544662    0.001090624
 -------------------------------------------------------------------
 Cartesian Forces:  Max     0.011856750 RMS     0.002883482

 GradGradGradGradGradGradGradGradGradGradGradGradGradGradGradGradGradGrad
 Berny optimization.
 Using GEDIIS/GDIIS optimizer.
 FormGI is forming the generalized inverse of G from B-inverse, IUseBI=4.
 Internal  Forces:  Max     0.004816740 RMS     0.001132247
 Search for a local minimum.
 Step number   2 out of a maximum of  101
 All quantities printed in internal units (Hartrees-Bohrs-Radians)
 Mixed Optimization -- RFO/linear search
 Update second derivatives using D2CorX and points    1    2
 DE= -9.76D-03 DEPred=-1.03D-02 R= 9.45D-01
 TightC=F SS=  1.41D+00  RLast= 5.21D-01 DXNew= 5.0454D-01 1.5631D+00
 Trust test= 9.45D-01 RLast= 5.21D-01 DXMaxT set to 5.05D-01
 ITU=  1  0
 Use linear search instead of GDIIS.
     Eigenvalues ---    0.00707   0.00835   0.01123   0.01275   0.01442
     Eigenvalues ---    0.01701   0.01764   0.01928   0.02068   0.02165
     Eigenvalues ---    0.02455   0.02658   0.03813   0.04312   0.05219
     Eigenvalues ---    0.06351   0.07019   0.11318   0.13862   0.14802
     Eigenvalues ---    0.15967   0.15977   0.15997   0.15999   0.16033
     Eigenvalues ---    0.19367   0.21981   0.27426   0.29822   0.32910
     Eigenvalues ---    0.33048   0.33322   0.33589   0.33986   0.34251
     Eigenvalues ---    0.35477   0.35578   0.35877   0.36037   0.36581
     Eigenvalues ---    0.44072   0.49326   0.533001000.000001000.00000
     Eigenvalues --- 1000.000001000.000001000.000001000.000001000.00000
     Eigenvalues --- 1000.000001000.000001000.000001000.000001000.00000
     Eigenvalues --- 1000.000001000.000001000.000001000.000001000.00000
     Eigenvalues --- 1000.000001000.000001000.000001000.000001000.00000
     Eigenvalues --- 1000.000001000.000001000.000001000.000001000.00000
     Eigenvalues --- 1000.000001000.000001000.000001000.000001000.00000
     Eigenvalues --- 1000.000001000.000001000.000001000.000001000.00000
     Eigenvalues --- 1000.000001000.000001000.000001000.000001000.00000
     Eigenvalues --- 1000.000001000.000001000.000001000.000001000.00000
     Eigenvalues --- 1000.00000
 RFO step:  Lambda=-7.02329513D-04 EMin= 7.07261616D-03
 Quartic linear search produced a step of  0.22896.
 Iteration  1 RMS(Cart)=  0.02725793 RMS(Int)=  0.00114627
 Iteration  2 RMS(Cart)=  0.00069425 RMS(Int)=  0.00090067
 Iteration  3 RMS(Cart)=  0.00000069 RMS(Int)=  0.00090067
 Iteration  1 RMS(Cart)=  0.00005378 RMS(Int)=  0.00000941
 Iteration  2 RMS(Cart)=  0.00000507 RMS(Int)=  0.00000987
 Iteration  3 RMS(Cart)=  0.00000087 RMS(Int)=  0.00001002
 Variable       Old X    -DE/DX   Delta X   Delta X   Delta X     New X
                                 (Linear)    (Quad)   (Total)
    R1        2.55409  -0.00063  -0.00139  -0.00001  -0.00139   2.55270
    R2        2.04255  -0.00006  -0.00112   0.00079  -0.00034   2.04221
    R3        2.85902   0.00266   0.00294   0.00722   0.01016   2.86918
    R4        6.61404   0.00104  -0.00000   0.00000  -0.00000   6.61404
    R5        2.79229   0.00068  -0.00358   0.00619   0.00262   2.79491
    R6        2.04284   0.00001   0.00002   0.00001   0.00003   2.04287
    R7        2.55214  -0.00029  -0.00188   0.00102  -0.00087   2.55128
    R8        2.04298   0.00001   0.00063  -0.00052   0.00011   2.04309
    R9        2.04122   0.00020  -0.00185   0.00234   0.00049   2.04171
   R10        2.88492  -0.00163  -0.00562  -0.00259  -0.00824   2.87668
   R11        6.61404   0.00085   0.00000   0.00000   0.00000   6.61404
   R12        2.08070  -0.00056  -0.00228  -0.00001  -0.00229   2.07842
   R13        2.06915   0.00182   0.00512   0.00009   0.00489   2.07404
   R14        5.72409  -0.00006  -0.00151  -0.00345  -0.00567   5.71842
   R15        5.71074   0.00011  -0.00549  -0.02693  -0.03234   5.67840
   R16        2.04470   0.00132   0.01155  -0.00579   0.00591   2.05061
   R17        2.04887  -0.00003  -0.00771   0.00684  -0.00086   2.04800
   R18        2.52315  -0.00361  -0.01829   0.00747  -0.01045   2.51270
   R19        2.04640   0.00086  -0.00588   0.00837   0.00249   2.04889
   R20        2.05202  -0.00027   0.00552  -0.00605  -0.00036   2.05166
    A1        2.20128   0.00198   0.00424   0.01050   0.01467   2.21595
    A2        1.91417  -0.00130  -0.00009  -0.00767  -0.00787   1.90630
    A3        2.16686  -0.00067  -0.00384  -0.00223  -0.00616   2.16070
    A4        1.90652   0.00050  -0.00021   0.00341   0.00313   1.90964
    A5        2.20301   0.00014   0.00179  -0.00034   0.00141   2.20441
    A6        2.17365  -0.00063  -0.00155  -0.00300  -0.00459   2.16906
    A7        1.90823   0.00018  -0.00021   0.00124   0.00094   1.90917
    A8        2.17133  -0.00042  -0.00154  -0.00149  -0.00307   2.16826
    A9        2.20357   0.00024   0.00176   0.00044   0.00217   2.20574
   A10        2.21187   0.00096   0.00265   0.00616   0.00864   2.22051
   A11        1.90655  -0.00004   0.00241  -0.00351  -0.00136   1.90520
   A12        2.16361  -0.00091  -0.00496  -0.00107  -0.00622   2.15739
   A13        1.78846   0.00067  -0.00198   0.00768   0.00571   1.79417
   A14        1.94959  -0.00065  -0.00162  -0.01059  -0.01231   1.93728
   A15        1.96722  -0.00029  -0.00068  -0.00190  -0.00259   1.96463
   A16        1.91726   0.00038   0.00566   0.00637   0.01213   1.92939
   A17        1.95622   0.00016  -0.00059   0.00386   0.00307   1.95929
   A18        1.88475  -0.00024  -0.00057  -0.00470  -0.00526   1.87949
   A19        2.05663   0.00025  -0.00115   0.00742   0.00664   2.06327
   A20        2.12349   0.00005  -0.00264  -0.00012  -0.00278   2.12071
   A21        0.82269   0.00060   0.00734   0.01193   0.01875   0.84144
   A22        2.07914  -0.00482  -0.01173  -0.02918  -0.04440   2.03474
   A23        2.09506   0.00146   0.00972   0.01538   0.02393   2.11899
   A24        2.10820   0.00341   0.01025   0.01428   0.02095   2.12916
   A25        1.61186  -0.00158  -0.00095  -0.00955  -0.01076   1.60110
   A26        2.13272   0.00023  -0.00333   0.00368  -0.00317   2.12955
   A27        2.09405   0.00207   0.01611   0.01230   0.02732   2.12137
   A28        2.05538  -0.00223  -0.00425  -0.01550  -0.02326   2.03212
   A29        1.61972  -0.00165  -0.00285  -0.01156  -0.01428   1.60544
    D1        3.11467   0.00038   0.00415   0.02202   0.02652   3.14119
    D2       -0.02233   0.00013   0.00183   0.00795   0.00992  -0.01240
    D3        0.01687   0.00006  -0.00168   0.00722   0.00563   0.02250
    D4       -3.12012  -0.00018  -0.00401  -0.00685  -0.01097  -3.13109
    D5       -0.03308   0.00013  -0.00090   0.01181   0.01081  -0.02227
    D6        2.01835   0.00066   0.00386   0.01875   0.02252   2.04086
    D7       -2.13905  -0.00034   0.00139   0.00340   0.00492  -2.13413
    D8       -3.13193  -0.00026  -0.00698  -0.00303  -0.00992   3.14134
    D9       -1.08050   0.00027  -0.00222   0.00391   0.00179  -1.07871
   D10        1.04529  -0.00073  -0.00469  -0.01144  -0.01581   1.02948
   D11        0.00908  -0.00029   0.00400  -0.02667  -0.02271  -0.01363
   D12        3.14054  -0.00009  -0.00162  -0.00669  -0.00845   3.13209
   D13       -3.13702  -0.00005   0.00631  -0.01288  -0.00650   3.13966
   D14       -0.00556   0.00015   0.00070   0.00710   0.00776   0.00220
   D15       -3.12208  -0.00003  -0.00647  -0.00025  -0.00702  -3.12910
   D16       -0.03070   0.00035  -0.00458   0.03402   0.02933  -0.00137
   D17        0.02988  -0.00023  -0.00076  -0.02068  -0.02162   0.00826
   D18        3.12126   0.00016   0.00114   0.01359   0.01473   3.13599
   D19        0.03865  -0.00029   0.00342  -0.02836  -0.02485   0.01380
   D20       -2.03566  -0.00008   0.00377  -0.02311  -0.01922  -2.05488
   D21        2.15220  -0.00015   0.00108  -0.02401  -0.02289   2.12931
   D22        3.13172   0.00014   0.00556   0.00501   0.01041  -3.14105
   D23        1.05741   0.00036   0.00591   0.01026   0.01605   1.07346
   D24       -1.03791   0.00029   0.00322   0.00935   0.01237  -1.02554
   D25        0.53643   0.00001  -0.00800  -0.00947  -0.01720   0.51923
   D26        1.49079   0.00084  -0.00019   0.00758   0.00710   1.49790
   D27       -1.47054  -0.00075  -0.00466  -0.02045  -0.02473  -1.49527
   D28       -0.51617   0.00007   0.00315  -0.00340  -0.00043  -0.51660
   D29        2.69848  -0.00118  -0.01096  -0.02765  -0.03825   2.66023
   D30       -2.63034  -0.00035  -0.00315  -0.01060  -0.01394  -2.64429
   D31        0.92458   0.00141   0.01380   0.01201   0.02469   0.94928
   D32       -0.97183   0.00139   0.01483   0.01520   0.02891  -0.94292
   D33       -0.78098  -0.00166  -0.01890  -0.02499  -0.04279  -0.82377
   D34        0.96678  -0.00106  -0.01483  -0.00871  -0.02257   0.94421
   D35       -2.11661   0.00141   0.04663  -0.00728   0.03637  -2.08024
   D36        1.06696  -0.00012  -0.01091  -0.02061  -0.03091   1.03605
   D37        3.07746   0.00191   0.06107   0.03060   0.09269  -3.11303
   D38       -0.01417   0.00037   0.00434   0.01949   0.02430   0.01014
   D39       -0.02145   0.00056   0.00633   0.01810   0.02333   0.00188
   D40       -3.11308  -0.00098  -0.05040   0.00699  -0.04506   3.12505
   D41       -1.05453  -0.00028   0.00443  -0.01035  -0.00605  -1.06058
   D42        2.13484  -0.00182  -0.04978  -0.02147  -0.07128   2.06356
         Item               Value     Threshold  Converged?
 Maximum Force            0.004837     0.000450     NO 
 RMS     Force            0.001135     0.000300     NO 
 Maximum Displacement     0.172546     0.001800     NO 
 RMS     Displacement     0.027363     0.001200     NO 
 Predicted change in Energy=-7.409698D-04
 GradGradGradGradGradGradGradGradGradGradGradGradGradGradGradGradGradGrad

                          Input orientation:                          
 ---------------------------------------------------------------------
 Center     Atomic      Atomic             Coordinates (Angstroms)
 Number     Number       Type             X           Y           Z
 ---------------------------------------------------------------------
      1          6           0       -1.035066    1.164476   -0.281220
      2          6           0       -1.413470    0.632287    0.901291
      3          6           0       -1.307157   -0.841341    0.833704
      4          6           0       -0.880845   -1.204038   -0.394881
      5          1           0       -1.004415    2.212794   -0.541963
      6          1           0       -1.735297    1.180025    1.775968
      7          1           0       -1.543542   -1.506377    1.652694
      8          1           0       -0.714687   -2.207512   -0.759238
      9          6           0       -0.674734    0.044538   -1.240985
     10          1           0       -1.349173    0.037760   -2.109754
     11          1           0        0.352985    0.126737   -1.617314
     12          6           0        2.203773    0.742863    0.976621
     13          1           0        2.428767    1.423615    0.162083
     14          1           0        1.845979    1.189368    1.897026
     15          6           0        2.334163   -0.572911    0.836136
     16          1           0        2.087359   -1.263482    1.634722
     17          1           0        2.678926   -1.013404   -0.094364
 ---------------------------------------------------------------------
                    Distance matrix (angstroms):
                    1          2          3          4          5
     1  C    0.000000
     2  C    1.350833   0.000000
     3  C    2.310929   1.479003   0.000000
     4  C    2.376249   2.309944   1.350078   0.000000
     5  H    1.080692   2.179063   3.363310   3.422227   0.000000
     6  H    2.173152   1.081041   2.270922   3.335631   2.640759
     7  H    3.336470   2.270552   1.081155   2.173279   4.351944
     8  H    3.420738   3.363051   2.180575   1.080429   4.435117
     9  C    1.518304   2.341052   2.342877   1.522273   2.301880
    10  H    2.170642   3.069852   3.072218   2.168451   2.703257
    11  H    2.188317   3.117582   3.114600   2.188068   2.711189
    12  C    3.500000   3.619716   3.854446   3.896962   3.841778
    13  H    3.501686   3.991918   4.420207   4.262429   3.592383
    14  H    3.611897   3.453380   3.898295   4.291480   3.888549
    15  C    3.952050   3.937194   3.651202   3.500000   4.561295
    16  H    4.394923   4.048168   3.513200   3.596256   5.136294
    17  H    4.309502   4.521872   4.096312   3.577516   4.916878
                    6          7          8          9         10
     6  H    0.000000
     7  H    2.696057   0.000000
     8  H    4.352508   2.644996   0.000000
     9  C    3.393542   3.396107   2.303347   0.000000
    10  H    4.068501   4.071628   2.695870   1.099852   0.000000
    11  H    4.121250   4.117867   2.706462   1.097537   1.774192
    12  C    4.043060   4.422502   4.498369   3.700167   4.758814
    13  H    4.472515   5.156163   4.890319   3.674530   4.621111
    14  H    3.583334   4.337695   5.015132   4.184703   5.252570
    15  C    4.529522   4.071206   3.809544   3.707982   4.755855
    16  H    4.539094   3.639061   3.804431   4.196398   5.246340
    17  H    5.272062   4.596136   3.658491   3.698786   4.625184
                   11         12         13         14         15
    11  H    0.000000
    12  C    3.245539   0.000000
    13  H    3.026056   1.085135   0.000000
    14  H    3.963433   1.083757   1.845140   0.000000
    15  C    3.230169   1.329661   2.109363   2.114104   0.000000
    16  H    3.939099   2.114727   3.083134   2.478617   1.084223
    17  H    3.004879   2.111221   2.463210   3.084095   1.085692
                   16         17
    16  H    0.000000
    17  H    1.844513   0.000000
 Stoichiometry    C7H10
 Framework group  C1[X(C7H10)]
 Deg. of freedom    45
 Full point group                 C1      NOp   1
 Largest Abelian subgroup         C1      NOp   1
 Largest concise Abelian subgroup C1      NOp   1
                         Standard orientation:                         
 ---------------------------------------------------------------------
 Center     Atomic      Atomic             Coordinates (Angstroms)
 Number     Number       Type             X           Y           Z
 ---------------------------------------------------------------------
      1          6           0       -1.073213   -1.158320    0.361131
      2          6           0       -1.132412   -0.781975   -0.934867
      3          6           0       -1.087044    0.693832   -1.020801
      4          6           0       -1.017680    1.213285    0.223413
      5          1           0       -1.086503   -2.168130    0.745841
      6          1           0       -1.191819   -1.440136   -1.790404
      7          1           0       -1.111105    1.250127   -1.947544
      8          1           0       -0.982414    2.258621    0.494255
      9          6           0       -1.014737    0.079187    1.238857
     10          1           0       -1.898487    0.142272    1.890533
     11          1           0       -0.124863    0.098413    1.880995
     12          6           0        2.372635   -0.690651   -0.035619
     13          1           0        2.387346   -1.263688    0.885755
     14          1           0        2.288285   -1.255463   -0.956706
     15          6           0        2.425662    0.637920   -0.026294
     16          1           0        2.385395    1.221190   -0.939373
     17          1           0        2.494904    1.197121    0.901729
 ---------------------------------------------------------------------
 Rotational constants (GHZ):           3.6277263           1.6858566           1.6042224
 Standard basis: 3-21G (6D, 7F)
 There are    83 symmetry adapted cartesian basis functions of A   symmetry.
 There are    83 symmetry adapted basis functions of A   symmetry.
    83 basis functions,   135 primitive gaussians,    83 cartesian basis functions
    26 alpha electrons       26 beta electrons
       nuclear repulsion energy       268.8989936852 Hartrees.
 NAtoms=   17 NActive=   17 NUniq=   17 SFac= 1.00D+00 NAtFMM=   60 NAOKFM=F Big=F
 Integral buffers will be    131072 words long.
 Raffenetti 2 integral format.
 Two-electron integral symmetry is turned on.
 One-electron integrals computed using PRISM.
 NBasis=    83 RedAO= T EigKep=  4.55D-03  NBF=    83
 NBsUse=    83 1.00D-06 EigRej= -1.00D+00 NBFU=    83
 Initial guess from the checkpoint file:  "C3.chk"
 B after Tr=    -0.000000   -0.000000   -0.000000
         Rot=    0.999973   -0.005208   -0.001172   -0.005079 Ang=  -0.84 deg.
 ExpMin= 1.83D-01 ExpMax= 1.72D+02 ExpMxC= 1.72D+02 IAcc=3 IRadAn=         5 AccDes= 0.00D+00
 Harris functional with IExCor=  402 and IRadAn=       5 diagonalized for initial guess.
 HarFok:  IExCor=  402 AccDes= 0.00D+00 IRadAn=         5 IDoV= 1 UseB2=F ITyADJ=14
 ICtDFT=  3500011 ScaDFX=  1.000000  1.000000  1.000000  1.000000
 FoFCou: FMM=F IPFlag=           0 FMFlag=      100000 FMFlg1=           0
         NFxFlg=           0 DoJE=T BraDBF=F KetDBF=T FulRan=T
         wScrn=  0.000000 ICntrl=       500 IOpCl=  0 I1Cent=   200000004 NGrid=           0
         NMat0=    1 NMatS0=      1 NMatT0=    0 NMatD0=    1 NMtDS0=    0 NMtDT0=    0
 Petite list used in FoFCou.
 Keep R1 ints in memory in canonical form, NReq=7891700.
 Requested convergence on RMS density matrix=1.00D-08 within 128 cycles.
 Requested convergence on MAX density matrix=1.00D-06.
 Requested convergence on             energy=1.00D-06.
 No special actions if energy rises.
 Integral accuracy reduced to 1.0D-05 until final iterations.
 Initial convergence to 1.0D-05 achieved.  Increase integral accuracy.
 SCF Done:  E(RB3LYP) =  -271.198205496     A.U. after   11 cycles
            NFock= 11  Conv=0.87D-08     -V/T= 2.0093
 Calling FoFJK, ICntrl=      2127 FMM=F ISym2X=0 I1Cent= 0 IOpClX= 0 NMat=1 NMatS=1 NMatT=0.
 ***** Axes restored to original set *****
 -------------------------------------------------------------------
 Center     Atomic                   Forces (Hartrees/Bohr)
 Number     Number              X              Y              Z
 -------------------------------------------------------------------
      1        6          -0.001192463    0.000241663    0.000691664
      2        6           0.001333533    0.000253147    0.000281909
      3        6          -0.001562015   -0.000245753   -0.000253276
      4        6           0.000497911    0.000936055   -0.000088554
      5        1           0.000055921   -0.000263797   -0.000312375
      6        1          -0.000197555   -0.000179062    0.000172752
      7        1          -0.000244767    0.000143219    0.000056415
      8        1           0.000220749    0.000096495   -0.000000510
      9        6          -0.001145806   -0.001732815   -0.001554982
     10        1          -0.000071876    0.000500114   -0.000456507
     11        1           0.000233497   -0.000003606    0.001565036
     12        6           0.000358688   -0.001232544   -0.001128876
     13        1           0.000774272    0.001223392    0.000569903
     14        1          -0.000161929    0.000617818    0.000371923
     15        6           0.000456089    0.000820949   -0.000441528
     16        1           0.000274786   -0.000419388    0.000278805
     17        1           0.000370964   -0.000755887    0.000248201
 -------------------------------------------------------------------
 Cartesian Forces:  Max     0.001732815 RMS     0.000710661

 GradGradGradGradGradGradGradGradGradGradGradGradGradGradGradGradGradGrad
 Berny optimization.
 Using GEDIIS/GDIIS optimizer.
 FormGI is forming the generalized inverse of G from B-inverse, IUseBI=4.
 Internal  Forces:  Max     0.001136634 RMS     0.000397600
 Search for a local minimum.
 Step number   3 out of a maximum of  101
 All quantities printed in internal units (Hartrees-Bohrs-Radians)
 Mixed Optimization -- En-DIIS/RFO-DIIS
 Update second derivatives using D2CorX and points    2    3
 DE= -7.35D-04 DEPred=-7.41D-04 R= 9.92D-01
 TightC=F SS=  1.41D+00  RLast= 1.98D-01 DXNew= 8.4853D-01 5.9334D-01
 Trust test= 9.92D-01 RLast= 1.98D-01 DXMaxT set to 5.93D-01
 ITU=  1  1  0
 Use linear search instead of GDIIS.
     Eigenvalues ---    0.00709   0.00851   0.01147   0.01248   0.01477
     Eigenvalues ---    0.01756   0.01777   0.01965   0.02116   0.02294
     Eigenvalues ---    0.02502   0.02714   0.03541   0.04318   0.05188
     Eigenvalues ---    0.06514   0.06994   0.09731   0.14047   0.14622
     Eigenvalues ---    0.15995   0.15997   0.15999   0.16023   0.16062
     Eigenvalues ---    0.19634   0.21994   0.27364   0.29669   0.33003
     Eigenvalues ---    0.33089   0.33327   0.33514   0.34051   0.34168
     Eigenvalues ---    0.35477   0.35581   0.35878   0.36037   0.36465
     Eigenvalues ---    0.44356   0.49343   0.533101000.000001000.00000
     Eigenvalues --- 1000.000001000.000001000.000001000.000001000.00000
     Eigenvalues --- 1000.000001000.000001000.000001000.000001000.00000
     Eigenvalues --- 1000.000001000.000001000.000001000.000001000.00000
     Eigenvalues --- 1000.000001000.000001000.000001000.000001000.00000
     Eigenvalues --- 1000.000001000.000001000.000001000.000001000.00000
     Eigenvalues --- 1000.000001000.000001000.000001000.000001000.00000
     Eigenvalues --- 1000.000001000.000001000.000001000.000001000.00000
     Eigenvalues --- 1000.000001000.000001000.000001000.000001000.00000
     Eigenvalues --- 1000.000001000.000001000.000001000.000001000.00000
     Eigenvalues --- 1000.00000
 RFO step:  Lambda=-2.51399994D-04 EMin= 7.09436647D-03
 Quartic linear search produced a step of  0.02658.
 Iteration  1 RMS(Cart)=  0.02444084 RMS(Int)=  0.00027870
 Iteration  2 RMS(Cart)=  0.00035299 RMS(Int)=  0.00006434
 Iteration  3 RMS(Cart)=  0.00000009 RMS(Int)=  0.00006434
 Iteration  1 RMS(Cart)=  0.00000573 RMS(Int)=  0.00000168
 Iteration  2 RMS(Cart)=  0.00000115 RMS(Int)=  0.00000181
 Iteration  3 RMS(Cart)=  0.00000024 RMS(Int)=  0.00000187
 Variable       Old X    -DE/DX   Delta X   Delta X   Delta X     New X
                                 (Linear)    (Quad)   (Total)
    R1        2.55270  -0.00005  -0.00004  -0.00036  -0.00034   2.55236
    R2        2.04221  -0.00018  -0.00001  -0.00060  -0.00060   2.04161
    R3        2.86918   0.00064   0.00027   0.00385   0.00413   2.87331
    R4        6.61404   0.00085  -0.00000   0.00000   0.00000   6.61404
    R5        2.79491  -0.00023   0.00007  -0.00047  -0.00038   2.79453
    R6        2.04287   0.00011   0.00000   0.00031   0.00031   2.04319
    R7        2.55128   0.00032  -0.00002   0.00040   0.00034   2.55162
    R8        2.04309   0.00001   0.00000   0.00006   0.00006   2.04314
    R9        2.04171  -0.00005   0.00001  -0.00012  -0.00011   2.04161
   R10        2.87668  -0.00065  -0.00022  -0.00372  -0.00398   2.87270
   R11        6.61404   0.00105   0.00000   0.00000  -0.00000   6.61404
   R12        2.07842   0.00040  -0.00006   0.00083   0.00077   2.07919
   R13        2.07404   0.00026   0.00013   0.00137   0.00148   2.07553
   R14        5.71842   0.00012  -0.00015  -0.00555  -0.00570   5.71272
   R15        5.67840  -0.00004  -0.00086  -0.01909  -0.01995   5.65845
   R16        2.05061  -0.00010   0.00016   0.00108   0.00123   2.05184
   R17        2.04800   0.00062  -0.00002   0.00161   0.00158   2.04959
   R18        2.51270   0.00028  -0.00028  -0.00115  -0.00143   2.51127
   R19        2.04889   0.00041   0.00007   0.00150   0.00156   2.05045
   R20        2.05166  -0.00026  -0.00001  -0.00033  -0.00034   2.05132
    A1        2.21595   0.00023   0.00039   0.00398   0.00442   2.22038
    A2        1.90630   0.00028  -0.00021   0.00024  -0.00009   1.90620
    A3        2.16070  -0.00051  -0.00016  -0.00426  -0.00437   2.15633
    A4        1.90964  -0.00018   0.00008  -0.00039  -0.00046   1.90918
    A5        2.20441   0.00037   0.00004   0.00254   0.00260   2.20701
    A6        2.16906  -0.00018  -0.00012  -0.00197  -0.00208   2.16698
    A7        1.90917  -0.00008   0.00002  -0.00029  -0.00058   1.90859
    A8        2.16826  -0.00016  -0.00008  -0.00156  -0.00165   2.16661
    A9        2.20574   0.00025   0.00006   0.00196   0.00201   2.20775
   A10        2.22051  -0.00011   0.00023   0.00081   0.00107   2.22159
   A11        1.90520   0.00041  -0.00004   0.00186   0.00147   1.90666
   A12        2.15739  -0.00031  -0.00017  -0.00300  -0.00313   2.15426
   A13        1.79417  -0.00043   0.00015  -0.00158  -0.00158   1.79259
   A14        1.93728   0.00016  -0.00033  -0.00267  -0.00295   1.93432
   A15        1.96463   0.00003  -0.00007  -0.00048  -0.00054   1.96409
   A16        1.92939   0.00039   0.00032   0.00863   0.00897   1.93836
   A17        1.95929   0.00019   0.00008  -0.00079  -0.00062   1.95867
   A18        1.87949  -0.00031  -0.00014  -0.00275  -0.00293   1.87656
   A19        2.06327   0.00087   0.00018   0.01191   0.01205   2.07532
   A20        2.12071   0.00072  -0.00007   0.00438   0.00422   2.12493
   A21        0.84144   0.00028   0.00050   0.00766   0.00815   0.84959
   A22        2.03474  -0.00069  -0.00118  -0.01270  -0.01390   2.02085
   A23        2.11899   0.00056   0.00064   0.00924   0.00985   2.12885
   A24        2.12916   0.00013   0.00056   0.00342   0.00396   2.13312
   A25        1.60110  -0.00114  -0.00029  -0.01222  -0.01250   1.58861
   A26        2.12955   0.00012  -0.00008  -0.00099  -0.00109   2.12846
   A27        2.12137   0.00023   0.00073   0.00827   0.00898   2.13036
   A28        2.03212  -0.00035  -0.00062  -0.00725  -0.00789   2.02423
   A29        1.60544  -0.00093  -0.00038  -0.00895  -0.00931   1.59613
    D1        3.14119  -0.00028   0.00071  -0.01118  -0.01049   3.13070
    D2       -0.01240   0.00013   0.00026   0.00537   0.00564  -0.00676
    D3        0.02250  -0.00026   0.00015  -0.00888  -0.00875   0.01375
    D4       -3.13109   0.00015  -0.00029   0.00767   0.00739  -3.12371
    D5       -0.02227  -0.00013   0.00029  -0.01727  -0.01695  -0.03923
    D6        2.04086   0.00016   0.00060  -0.00931  -0.00873   2.03213
    D7       -2.13413  -0.00010   0.00013  -0.01509  -0.01496  -2.14909
    D8        3.14134  -0.00012  -0.00026  -0.01518  -0.01542   3.12592
    D9       -1.07871   0.00016   0.00005  -0.00723  -0.00720  -1.08591
   D10        1.02948  -0.00010  -0.00042  -0.01301  -0.01343   1.01605
   D11       -0.01363   0.00062  -0.00060   0.03574   0.03510   0.02147
   D12        3.13209   0.00026  -0.00022   0.00941   0.00918   3.14127
   D13        3.13966   0.00021  -0.00017   0.01956   0.01938  -3.12414
   D14        0.00220  -0.00016   0.00021  -0.00677  -0.00654  -0.00434
   D15       -3.12910  -0.00030  -0.00019  -0.02064  -0.02083   3.13326
   D16       -0.00137  -0.00070   0.00078  -0.04640  -0.04566  -0.04702
   D17        0.00826   0.00008  -0.00057   0.00639   0.00585   0.01411
   D18        3.13599  -0.00032   0.00039  -0.01937  -0.01898   3.11701
   D19        0.01380   0.00051  -0.00066   0.03948   0.03880   0.05260
   D20       -2.05488   0.00039  -0.00051   0.03947   0.03896  -2.01592
   D21        2.12931   0.00039  -0.00061   0.03753   0.03688   2.16618
   D22       -3.14105   0.00013   0.00028   0.01488   0.01517  -3.12588
   D23        1.07346   0.00000   0.00043   0.01487   0.01533   1.08879
   D24       -1.02554   0.00000   0.00033   0.01293   0.01324  -1.01230
   D25        0.51923  -0.00061  -0.00046  -0.01262  -0.01318   0.50605
   D26        1.49790   0.00022   0.00019   0.00207   0.00220   1.50009
   D27       -1.49527  -0.00021  -0.00066  -0.00980  -0.01043  -1.50570
   D28       -0.51660   0.00062  -0.00001   0.00489   0.00494  -0.51166
   D29        2.66023  -0.00060  -0.00102  -0.01822  -0.01927   2.64096
   D30       -2.64429   0.00022  -0.00037  -0.00353  -0.00390  -2.64819
   D31        0.94928   0.00039   0.00066   0.00493   0.00563   0.95491
   D32       -0.94292  -0.00001   0.00077   0.00596   0.00668  -0.93624
   D33       -0.82377  -0.00062  -0.00114  -0.02163  -0.02277  -0.84654
   D34        0.94421   0.00017  -0.00060  -0.00484  -0.00546   0.93876
   D35       -2.08024   0.00011   0.00097  -0.00145  -0.00048  -2.08071
   D36        1.03605   0.00048  -0.00082  -0.00314  -0.00387   1.03218
   D37       -3.11303  -0.00049   0.00246  -0.00116   0.00131  -3.11172
   D38        0.01014  -0.00014   0.00065   0.00104   0.00170   0.01183
   D39        0.00188  -0.00011   0.00062  -0.00317  -0.00255  -0.00067
   D40        3.12505   0.00024  -0.00120  -0.00098  -0.00217   3.12288
   D41       -1.06058  -0.00036  -0.00016  -0.00220  -0.00238  -1.06296
   D42        2.06356  -0.00003  -0.00189  -0.00007  -0.00195   2.06161
         Item               Value     Threshold  Converged?
 Maximum Force            0.001224     0.000450     NO 
 RMS     Force            0.000374     0.000300     NO 
 Maximum Displacement     0.134890     0.001800     NO 
[...]
 ! A21   A(13,11,17)            39.496          -DE/DX =   -0.0001              !
 ! A22   A(13,12,14)           116.8561         -DE/DX =    0.0                 !
 ! A23   A(13,12,15)           121.6594         -DE/DX =    0.0                 !
 ! A24   A(14,12,15)           121.4837         -DE/DX =    0.0                 !
 ! A25   A(11,13,12)            46.1347         -DE/DX =    0.0001              !
 ! A26   A(12,15,16)           121.1702         -DE/DX =    0.0                 !
 ! A27   A(12,15,17)           122.1134         -DE/DX =    0.0                 !
 ! A28   A(16,15,17)           116.7155         -DE/DX =    0.0                 !
 ! A29   A(11,17,15)            40.4503         -DE/DX =    0.0001              !
 ! D1    D(5,1,2,3)            179.823          -DE/DX =    0.0                 !
 ! D2    D(5,1,2,6)             -0.2618         -DE/DX =    0.0                 !
 ! D3    D(9,1,2,3)              0.4612         -DE/DX =    0.0                 !
 ! D4    D(9,1,2,6)           -179.6237         -DE/DX =    0.0                 !
 ! D5    D(2,1,9,4)             -0.5553         -DE/DX =    0.0001              !
 ! D6    D(2,1,9,10)           119.2152         -DE/DX =    0.0                 !
 ! D7    D(2,1,9,11)          -119.5628         -DE/DX =   -0.0001              !
 ! D8    D(5,1,9,4)           -179.9447         -DE/DX =    0.0001              !
 ! D9    D(5,1,9,10)           -60.1742         -DE/DX =    0.0                 !
 ! D10   D(5,1,9,11)            61.0478         -DE/DX =   -0.0001              !
 ! D11   D(1,2,3,4)             -0.1646         -DE/DX =    0.0                 !
 ! D12   D(1,2,3,7)            179.8442         -DE/DX =    0.0                 !
 ! D13   D(6,2,3,4)            179.9177         -DE/DX =    0.0                 !
 ! D14   D(6,2,3,7)             -0.0734         -DE/DX =    0.0                 !
 ! D15   D(2,3,4,8)           -179.4254         -DE/DX =    0.0                 !
 ! D16   D(2,3,4,9)             -0.2058         -DE/DX =    0.0                 !
 ! D17   D(7,3,4,8)              0.5655         -DE/DX =    0.0                 !
 ! D18   D(7,3,4,9)            179.7851         -DE/DX =    0.0                 !
 ! D19   D(3,4,9,1)              0.4526         -DE/DX =   -0.0001              !
 ! D20   D(3,4,9,10)          -119.2341         -DE/DX =    0.0                 !
 ! D21   D(3,4,9,11)           119.6735         -DE/DX =    0.0001              !
 ! D22   D(8,4,9,1)            179.7066         -DE/DX =   -0.0001              !
 ! D23   D(8,4,9,10)            60.0199         -DE/DX =    0.0                 !
 ! D24   D(8,4,9,11)           -61.0725         -DE/DX =    0.0001              !
 ! D25   D(1,9,11,13)           38.1191         -DE/DX =    0.0                 !
 ! D26   D(1,9,11,17)           87.8465         -DE/DX =    0.0001              !
 ! D27   D(4,9,11,13)          -75.7479         -DE/DX =   -0.0001              !
 ! D28   D(4,9,11,17)          -26.0205         -DE/DX =    0.0001              !
 ! D29   D(10,9,11,13)         161.209          -DE/DX =    0.0                 !
 ! D30   D(10,9,11,17)        -149.0636         -DE/DX =    0.0001              !
 ! D31   D(9,11,13,12)          54.0941         -DE/DX =    0.0002              !
 ! D32   D(17,11,13,12)        -58.3724         -DE/DX =    0.0                 !
 ! D33   D(9,11,17,15)         -28.1611         -DE/DX =   -0.0001              !
 ! D34   D(13,11,17,15)         70.6178         -DE/DX =    0.0                 !
 ! D35   D(14,12,13,11)        -76.8577         -DE/DX =    0.0                 !
 ! D36   D(15,12,13,11)        102.818          -DE/DX =   -0.0001              !
 ! D37   D(13,12,15,16)        179.7033         -DE/DX =    0.0                 !
 ! D38   D(13,12,15,17)          0.0526         -DE/DX =    0.0                 !
 ! D39   D(14,12,15,16)         -0.6359         -DE/DX =    0.0                 !
 ! D40   D(14,12,15,17)        179.7133         -DE/DX =    0.0                 !
 ! D41   D(12,15,17,11)        -85.9094         -DE/DX =    0.0001              !
 ! D42   D(16,15,17,11)         94.4251         -DE/DX =    0.0                 !
 --------------------------------------------------------------------------------
 GradGradGradGradGradGradGradGradGradGradGradGradGradGradGradGradGradGrad

                          Input orientation:                          
 ---------------------------------------------------------------------
 Center     Atomic      Atomic             Coordinates (Angstroms)
 Number     Number       Type             X           Y           Z
 ---------------------------------------------------------------------
      1          6           0       -1.138006    1.219441   -0.202777
      2          6           0       -1.531667    0.702104    0.981673
      3          6           0       -1.353636   -0.768053    0.957059
      4          6           0       -0.856080   -1.137451   -0.243438
      5          1           0       -1.148209    2.259594   -0.495525
      6          1           0       -1.917307    1.252815    1.828477
      7          1           0       -1.592321   -1.421985    1.784104
      8          1           0       -0.625198   -2.140157   -0.573426
      9          6           0       -0.673124    0.095201   -1.113651
     10          1           0       -1.279177    0.039909   -2.028878
     11          1           0        0.378246    0.222460   -1.402822
     12          6           0        2.162058    0.605706    0.788639
     13          1           0        2.886470    1.412943    0.719891
     14          1           0        1.140342    0.883155    1.020704
     15          6           0        2.509838   -0.663777    0.590965
     16          1           0        1.781361   -1.463551    0.666219
     17          1           0        3.529975   -0.952956    0.353311
 ---------------------------------------------------------------------
                    Distance matrix (angstroms):
                    1          2          3          4          5
     1  C    0.000000
     2  C    1.351121   0.000000
     3  C    2.311244   1.481102   0.000000
     4  C    2.374042   2.311120   1.351003   0.000000
     5  H    1.080612   2.180580   3.364349   3.418888   0.000000
     6  H    2.175871   1.081239   2.271784   3.336526   2.646904
     7  H    3.336350   2.271416   1.081019   2.175761   4.352926
     8  H    3.418663   3.364293   2.180752   1.080564   4.431412
     9  C    1.519778   2.344315   2.344386   1.519925   2.300518
    10  H    2.178502   3.092842   3.094215   2.180133   2.700986
    11  H    2.175569   3.092514   3.090238   2.171886   2.702437
    12  C    3.500000   3.700022   3.778318   3.634961   3.916923
    13  H    4.133420   4.482606   4.774043   4.630247   4.297986
    14  H    2.607846   2.678420   2.991733   3.109116   3.070993
    15  C    4.181304   4.283929   3.882181   3.500000   4.807063
    16  H    4.059102   3.970608   3.224363   2.808899   4.877892
    17  H    5.178667   5.362302   4.924263   4.430308   5.738153
                    6          7          8          9         10
     6  H    0.000000
     7  H    2.694836   0.000000
     8  H    4.353268   2.647461   0.000000
     9  C    3.397673   3.397611   2.300209   0.000000
    10  H    4.093597   4.095610   2.701613   1.099089   0.000000
    11  H    4.095423   4.091923   2.697546   1.097813   1.781101
    12  C    4.259253   4.381535   4.142920   3.452185   4.483372
    13  H    4.932634   5.406379   5.160329   4.215333   5.176250
    14  H    3.184080   3.655667   3.846921   2.909468   3.983100
    15  C    4.980399   4.338914   3.655674   3.689581   4.659976
    16  H    4.733882   3.554312   2.790348   3.409126   4.346358
    17  H    6.059243   5.339015   4.419701   4.573473   5.457889
                   11         12         13         14         15
    11  H    0.000000
    12  C    2.851555   0.000000
    13  H    3.494903   1.086798   0.000000
    14  H    2.625030   1.083852   1.849358   0.000000
    15  C    3.050292   1.331019   2.114530   2.110259   0.000000
    16  H    3.015343   2.107544   3.081942   2.458373   1.084426
    17  H    3.794602   2.118994   2.479104   3.086594   1.086639
                   16         17
    16  H    0.000000
    17  H    1.848315   0.000000
 Stoichiometry    C7H10
 Framework group  C1[X(C7H10)]
 Deg. of freedom    45
 Full point group                 C1      NOp   1
 Largest Abelian subgroup         C1      NOp   1
 Largest concise Abelian subgroup C1      NOp   1
                         Standard orientation:                         
 ---------------------------------------------------------------------
 Center     Atomic      Atomic             Coordinates (Angstroms)
 Number     Number       Type             X           Y           Z
 ---------------------------------------------------------------------
      1          6           0       -1.231522   -1.099168    0.376297
      2          6           0       -1.443885   -0.636422   -0.875220
      3          6           0       -1.156394    0.815954   -0.915411
      4          6           0       -0.774220    1.229543    0.312634
      5          1           0       -1.356258   -2.113975    0.726057
      6          1           0       -1.770308   -1.214501   -1.728655
      7          1           0       -1.246133    1.427845   -1.802055
      8          1           0       -0.506061    2.233534    0.608797
      9          6           0       -0.789566    0.048484    1.269210
     10          1           0       -1.491507    0.207606    2.099846
     11          1           0        0.208128   -0.132400    1.690020
     12          6           0        2.198826   -0.786392   -0.244090
     13          1           0        2.845560   -1.635956   -0.041343
     14          1           0        1.192479   -1.006534   -0.581043
     15          6           0        2.618775    0.466012   -0.080564
     16          1           0        1.968191    1.307996   -0.289810
     17          1           0        3.623822    0.698316    0.261051
 ---------------------------------------------------------------------
 Rotational constants (GHZ):           3.8331713           1.6449696           1.5569509

 **********************************************************************

            Population analysis using the SCF Density.

 **********************************************************************

 Orbital symmetries:
       Occupied  (A) (A) (A) (A) (A) (A) (A) (A) (A) (A) (A) (A)
                 (A) (A) (A) (A) (A) (A) (A) (A) (A) (A) (A) (A)
                 (A) (A)
       Virtual   (A) (A) (A) (A) (A) (A) (A) (A) (A) (A) (A) (A)
                 (A) (A) (A) (A) (A) (A) (A) (A) (A) (A) (A) (A)
                 (A) (A) (A) (A) (A) (A) (A) (A) (A) (A) (A) (A)
                 (A) (A) (A) (A) (A) (A) (A) (A) (A) (A) (A) (A)
                 (A) (A) (A) (A) (A) (A) (A) (A) (A)
 The electronic state is 1-A.
 Alpha  occ. eigenvalues --  -10.12574 -10.12313 -10.12243 -10.12162 -10.12106
 Alpha  occ. eigenvalues --  -10.10875 -10.10656  -0.85692  -0.74958  -0.70745
 Alpha  occ. eigenvalues --   -0.70148  -0.56640  -0.55211  -0.53026  -0.51638
 Alpha  occ. eigenvalues --   -0.46380  -0.43252  -0.41080  -0.40516  -0.37789
 Alpha  occ. eigenvalues --   -0.35958  -0.35825  -0.34340  -0.29934  -0.26049
 Alpha  occ. eigenvalues --   -0.21836
 Alpha virt. eigenvalues --   -0.01203   0.03008   0.08928   0.13189   0.15578
 Alpha virt. eigenvalues --    0.16875   0.17270   0.18920   0.19212   0.19425
 Alpha virt. eigenvalues --    0.19856   0.20734   0.21092   0.25525   0.29509
 Alpha virt. eigenvalues --    0.37651   0.38443   0.39998   0.47156   0.64894
 Alpha virt. eigenvalues --    0.68098   0.71037   0.71713   0.72914   0.73801
 Alpha virt. eigenvalues --    0.74604   0.77949   0.79086   0.80953   0.82221
 Alpha virt. eigenvalues --    0.83068   0.83875   0.85179   0.87723   0.91562
 Alpha virt. eigenvalues --    0.94753   0.99110   1.01790   1.02848   1.03587
 Alpha virt. eigenvalues --    1.04849   1.05928   1.06939   1.11411   1.11964
 Alpha virt. eigenvalues --    1.15881   1.29223   1.36257   1.36826   1.40230
 Alpha virt. eigenvalues --    1.41198   1.54853   1.69923   1.75626   1.83738
 Alpha virt. eigenvalues --    2.03328   2.17133
          Condensed to atoms (all electrons):
               1          2          3          4          5          6
     1  C    5.246402   0.525761  -0.112862  -0.111316   0.390434  -0.036776
     2  C    0.525761   5.185072   0.387247  -0.111132  -0.035292   0.387151
     3  C   -0.112862   0.387247   5.177203   0.525945   0.003874  -0.031571
     4  C   -0.111316  -0.111132   0.525945   5.234498   0.002768   0.003439
     5  H    0.390434  -0.035292   0.003874   0.002768   0.490406  -0.002050
     6  H   -0.036776   0.387151  -0.031571   0.003439  -0.002050   0.495943
     7  H    0.003439  -0.031820   0.387153  -0.036714  -0.000050  -0.000758
     8  H    0.002764   0.003880  -0.035376   0.390125  -0.000031  -0.000050
     9  C    0.331897  -0.125618  -0.123684   0.334169  -0.031835   0.004497
    10  H   -0.034320   0.002401   0.002300  -0.034771  -0.000220  -0.000085
    11  H   -0.033575   0.002119   0.002167  -0.034541  -0.000164  -0.000083
    12  C   -0.003101  -0.002710   0.000144   0.001062  -0.000051  -0.000021
    13  H    0.000060   0.000034   0.000015   0.000023   0.000001  -0.000000
    14  H    0.003785   0.004238   0.000265  -0.000764   0.000108   0.000183
    15  C    0.000198   0.000098  -0.001074  -0.002522   0.000001   0.000001
    16  H   -0.000094   0.000001   0.001983   0.005750  -0.000001  -0.000001
    17  H   -0.000008  -0.000002   0.000015   0.000087   0.000000   0.000000
               7          8          9         10         11         12
     1  C    0.003439   0.002764   0.331897  -0.034320  -0.033575  -0.003101
     2  C   -0.031820   0.003880  -0.125618   0.002401   0.002119  -0.002710
     3  C    0.387153  -0.035376  -0.123684   0.002300   0.002167   0.000144
     4  C   -0.036714   0.390125   0.334169  -0.034771  -0.034541   0.001062
     5  H   -0.000050  -0.000031  -0.031835  -0.000220  -0.000164  -0.000051
     6  H   -0.000758  -0.000050   0.004497  -0.000085  -0.000083  -0.000021
     7  H    0.496125  -0.002048   0.004498  -0.000085  -0.000084  -0.000006
     8  H   -0.002048   0.491269  -0.031965  -0.000184  -0.000174  -0.000013
     9  C    0.004498  -0.031965   5.418758   0.349657   0.342122  -0.003124
    10  H   -0.000085  -0.000184   0.349657   0.513469  -0.021768   0.000048
    11  H   -0.000084  -0.000174   0.342122  -0.021768   0.493914   0.006234
    12  C   -0.000006  -0.000013  -0.003124   0.000048   0.006234   5.180595
    13  H    0.000000   0.000000  -0.000010  -0.000000  -0.000020   0.378370
    14  H    0.000009  -0.000013  -0.001801   0.000098  -0.001182   0.370355
    15  C    0.000002  -0.000097  -0.001711   0.000030   0.003747   0.559884
    16  H    0.000048   0.000577  -0.000362   0.000012  -0.000138  -0.045464
    17  H   -0.000000  -0.000002   0.000005   0.000000   0.000007  -0.047797
              13         14         15         16         17
     1  C    0.000060   0.003785   0.000198  -0.000094  -0.000008
     2  C    0.000034   0.004238   0.000098   0.000001  -0.000002
     3  C    0.000015   0.000265  -0.001074   0.001983   0.000015
     4  C    0.000023  -0.000764  -0.002522   0.005750   0.000087
     5  H    0.000001   0.000108   0.000001  -0.000001   0.000000
     6  H   -0.000000   0.000183   0.000001  -0.000001   0.000000
     7  H    0.000000   0.000009   0.000002   0.000048  -0.000000
     8  H    0.000000  -0.000013  -0.000097   0.000577  -0.000002
     9  C   -0.000010  -0.001801  -0.001711  -0.000362   0.000005
    10  H   -0.000000   0.000098   0.000030   0.000012   0.000000
    11  H   -0.000020  -0.001182   0.003747  -0.000138   0.000007
    12  C    0.378370   0.370355   0.559884  -0.045464  -0.047797
    13  H    0.524574  -0.028712  -0.048690   0.003360  -0.005115
    14  H   -0.028712   0.476462  -0.043864  -0.005005   0.003058
    15  C   -0.048690  -0.043864   5.166059   0.374437   0.377267
    16  H    0.003360  -0.005005   0.374437   0.502312  -0.030169
    17  H   -0.005115   0.003058   0.377267  -0.030169   0.525416
 Mulliken charges:
               1
     1  C   -0.172689
     2  C   -0.191426
     3  C   -0.183743
     4  C   -0.166108
     5  H    0.182100
     6  H    0.180181
     7  H    0.180291
     8  H    0.181339
     9  C   -0.465494
    10  H    0.223419
    11  H    0.241419
    12  C   -0.394406
    13  H    0.176110
    14  H    0.222781
    15  C   -0.383765
    16  H    0.192752
    17  H    0.177239
 Sum of Mulliken charges =   0.00000
 Mulliken charges with hydrogens summed into heavy atoms:
               1
     1  C    0.009412
     2  C   -0.011245
     3  C   -0.003452
     4  C    0.015230
     9  C   -0.000656
    12  C    0.004485
    15  C   -0.013774
 Electronic spatial extent (au):  <R**2>=            900.1937
 Charge=              0.0000 electrons
 Dipole moment (field-independent basis, Debye):
    X=             -0.2167    Y=             -0.0114    Z=              0.4852  Tot=              0.5315
 Quadrupole moment (field-independent basis, Debye-Ang):
   XX=            -45.9344   YY=            -40.3043   ZZ=            -41.8832
   XY=              0.9666   XZ=              1.7053   YZ=             -0.1433
 Traceless Quadrupole moment (field-independent basis, Debye-Ang):
   XX=             -3.2271   YY=              2.4030   ZZ=              0.8241
   XY=              0.9666   XZ=              1.7053   YZ=             -0.1433
 Octapole moment (field-independent basis, Debye-Ang**2):
  XXX=             12.7307  YYY=             -0.1403  ZZZ=              0.1405  XYY=              0.8195
  XXY=             -2.4102  XXZ=              3.5601  XZZ=             -8.9692  YZZ=              0.6704
  YYZ=              0.1769  XYZ=             -0.0219
 Hexadecapole moment (field-independent basis, Debye-Ang**3):
 XXXX=           -759.4600 YYYY=           -245.5503 ZZZZ=           -204.4449 XXXY=              4.7384
 XXXZ=             16.9101 YYYX=              3.6290 YYYZ=             -1.9180 ZZZX=              6.6095
 ZZZY=             -0.9674 XXYY=           -163.6088 XXZZ=           -164.6646 YYZZ=            -75.5031
 XXYZ=              1.4935 YYXZ=              2.2879 ZZXY=              1.0585
 N-N= 2.697712022491D+02 E-N=-1.166642036982D+03  KE= 2.687300214416D+02
 1\1\GINC-TACHAS\FOpt\RB3LYP\3-21G\C7H10\LEOS\20-Oct-2019\0\\# opt=modr
 edundant b3lyp/3-21g geom=connectivity\\Title Card Required\\0,1\C,-1.
 1380060872,1.2194411954,-0.2027765414\C,-1.5316671195,0.7021043526,0.9
 816730264\C,-1.3536362317,-0.7680526697,0.9570589457\C,-0.856080431,-1
 .137450547,-0.24343768\H,-1.1482085637,2.2595938728,-0.4955250542\H,-1
 .9173073501,1.2528152658,1.8284767386\H,-1.5923212747,-1.4219849402,1.
 7841043543\H,-0.6251979579,-2.1401570238,-0.5734261149\C,-0.673124069,
 0.0952005083,-1.1136513545\H,-1.2791767189,0.0399086557,-2.0288778052\
 H,0.3782461236,0.2224595245,-1.4028217935\C,2.1620581993,0.6057063104,
 0.7886392356\H,2.8864696676,1.4129432033,0.7198909953\H,1.140341841,0.
 8831552227,1.0207038062\C,2.509837819,-0.6637765068,0.5909647384\H,1.7
 81361301,-1.4635509189,0.6662185604\H,3.5299753421,-0.952955525,0.3533
 113429\\Version=ES64L-G16RevB.01\State=1-A\HF=-271.2009319\RMSD=3.375e
 -09\RMSF=5.876e-04\Dipole=-0.0610992,0.0222529,-0.1987574\Quadrupole=-
 2.1300208,1.8692318,0.260789,-0.3162444,-1.6268739,0.0279963\PG=C01 [X
 (C7H10)]\\@


 IF IT'S NOT TRUE, IT'S WELL INVENTED -- DANTE
 Job cpu time:       0 days  0 hours 15 minutes 17.9 seconds.
 Elapsed time:       0 days  0 hours  7 minutes 41.5 seconds.
 File lengths (MBytes):  RWF=     10 Int=      0 D2E=      0 Chk=      2 Scr=      1
 Normal termination of Gaussian 16 at Sun Oct 20 18:36:43 2019.
